   4   4   0   0
  0.5656217E+01  0.2503303E-09  0.2503303E-09  0.4168969E-09  0.1000000E-15
  1.000000000000000E-004
  CAR 
 unknown system                          
    177.24601547    -20.76944830  301     10.41798724      1.00000000
    -20.769  0.0000E+00  0.0000E+00
    -20.109  0.0000E+00  0.0000E+00
    -19.449  0.0000E+00  0.0000E+00
    -18.789  0.0000E+00  0.0000E+00
    -18.129  0.0000E+00  0.0000E+00
    -17.469  0.0000E+00  0.0000E+00
    -16.809  0.0000E+00  0.0000E+00
    -16.149  0.0000E+00  0.0000E+00
    -15.489  0.0000E+00  0.0000E+00
    -14.829  0.0000E+00  0.0000E+00
    -14.169  0.0000E+00  0.0000E+00
    -13.509  0.0000E+00  0.0000E+00
    -12.849  0.0000E+00  0.0000E+00
    -12.189  0.2696E-11  0.1780E-11
    -11.529  0.1893E-02  0.1250E-02
    -10.869  0.0000E+00  0.1250E-02
    -10.209  0.7937E-02  0.6489E-02
     -9.549  0.7213E-02  0.1125E-01
     -8.889  0.5304E-06  0.1125E-01
     -8.228  0.2272E-01  0.2625E-01
     -7.568  0.3484E-05  0.2625E-01
     -6.908  0.1136E-01  0.3375E-01
     -6.248  0.6498E-02  0.3804E-01
     -5.588  0.2363E-01  0.5363E-01
     -4.928  0.1294E-01  0.6229E-01
     -4.268  0.1526E-01  0.7250E-01
     -3.608  0.1463E-02  0.7347E-01
     -2.948  0.1000E-01  0.8007E-01
     -2.288  0.2254E-01  0.9495E-01
     -1.628  0.1334E-01  0.1038E+00
     -0.968  0.5775E-02  0.1076E+00
     -0.308  0.2262E-01  0.1225E+00
      0.352  0.9444E-02  0.1287E+00
      1.012  0.2463E-01  0.1450E+00
      1.672  0.9474E-02  0.1513E+00
      2.332  0.3526E-01  0.1745E+00
      2.992  0.2627E-01  0.1919E+00
      3.652  0.6631E-02  0.1962E+00
      4.313  0.2640E-01  0.2137E+00
      4.973  0.4730E-01  0.2449E+00
      5.633  0.4538E-01  0.2750E+00
      6.293  0.2265E-01  0.2899E+00
      6.953  0.9401E-02  0.2962E+00
      7.613  0.1130E-01  0.3037E+00
      8.273  0.1894E-01  0.3162E+00
      8.933  0.3995E-17  0.3162E+00
      9.593  0.1765E-02  0.3174E+00
     10.253  0.3917E-02  0.3200E+00
     10.913  0.0000E+00  0.3200E+00
     11.573  0.0000E+00  0.3200E+00
     12.233  0.0000E+00  0.3200E+00
     12.893  0.0000E+00  0.3200E+00
     13.553  0.0000E+00  0.3200E+00
     14.213  0.6114E-03  0.3204E+00
     14.873  0.2949E-01  0.3399E+00
     15.533  0.4072E-02  0.3426E+00
     16.193  0.3414E-01  0.3651E+00
     16.853  0.2161E-01  0.3794E+00
     17.514  0.4616E-01  0.4098E+00
     18.174  0.1200E-01  0.4178E+00
     18.834  0.7090E-02  0.4225E+00
     19.494  0.3224E-01  0.4438E+00
     20.154  0.6258E-01  0.4851E+00
     20.814  0.6205E-01  0.5262E+00
     21.474  0.0000E+00  0.5262E+00
     22.134  0.2309E-04  0.5263E+00
     22.794  0.1705E-01  0.5375E+00
     23.454  0.2270E-01  0.5525E+00
     24.114  0.4684E-01  0.5834E+00
     24.774  0.3459E-01  0.6062E+00
     25.434  0.2651E-01  0.6238E+00
     26.094  0.1753E-01  0.6353E+00
     26.754  0.1088E-01  0.6425E+00
     27.414  0.1268E-01  0.6509E+00
     28.074  0.1463E-01  0.6605E+00
     28.734  0.2455E-01  0.6768E+00
     29.394  0.3524E-01  0.7000E+00
     30.055  0.4224E-01  0.7279E+00
     30.715  0.1445E-01  0.7375E+00
     31.375  0.1691E-01  0.7487E+00
     32.035  0.1734E-02  0.7499E+00
     32.695  0.1123E-02  0.7506E+00
     33.355  0.6149E-01  0.7912E+00
     34.015  0.4513E-01  0.8210E+00
     34.675  0.7889E-02  0.8262E+00
     35.335  0.6121E-02  0.8303E+00
     35.995  0.7837E-02  0.8355E+00
     36.655  0.2568E-01  0.8524E+00
     37.315  0.2667E-01  0.8700E+00
     37.975  0.1131E-01  0.8775E+00
     38.635  0.2529E-02  0.8792E+00
     39.295  0.8833E-02  0.8850E+00
     39.955  0.3382E-01  0.9073E+00
     40.615  0.2943E-01  0.9269E+00
     41.275  0.1036E-01  0.9338E+00
     41.935  0.3091E-01  0.9542E+00
     42.596  0.1073E-01  0.9613E+00
     43.256  0.1560E-12  0.9613E+00
     43.916  0.1132E-01  0.9687E+00
     44.576  0.4555E-02  0.9718E+00
     45.236  0.2156E-01  0.9860E+00
     45.896  0.2165E-01  0.1000E+01
     46.556  0.1728E-01  0.1012E+01
     47.216  0.4853E-01  0.1044E+01
     47.876  0.1311E-01  0.1052E+01
     48.536  0.4175E-01  0.1080E+01
     49.196  0.1782E-02  0.1081E+01
     49.856  0.5313E-01  0.1116E+01
     50.516  0.1473E-01  0.1126E+01
     51.176  0.4129E-01  0.1153E+01
     51.836  0.1569E-01  0.1164E+01
     52.496  0.9865E-02  0.1170E+01
     53.156  0.9170E-02  0.1176E+01
     53.816  0.7476E-02  0.1181E+01
     54.476  0.7450E-01  0.1230E+01
     55.136  0.4109E-01  0.1257E+01
     55.797  0.9566E-04  0.1258E+01
     56.457  0.1430E-01  0.1267E+01
     57.117  0.3608E-01  0.1291E+01
     57.777  0.2883E-01  0.1310E+01
     58.437  0.2062E-01  0.1323E+01
     59.097  0.3059E-01  0.1344E+01
     59.757  0.4543E-01  0.1374E+01
     60.417  0.4734E-01  0.1405E+01
     61.077  0.1153E-01  0.1413E+01
     61.737  0.5549E-02  0.1416E+01
     62.397  0.4494E-01  0.1446E+01
     63.057  0.1450E-01  0.1456E+01
     63.717  0.2619E-01  0.1473E+01
     64.377  0.2588E-01  0.1490E+01
     65.037  0.5565E-01  0.1527E+01
     65.697  0.4766E-01  0.1558E+01
     66.357  0.2984E-01  0.1578E+01
     67.017  0.1772E-01  0.1589E+01
     67.677  0.2920E-01  0.1609E+01
     68.338  0.2834E-01  0.1627E+01
     68.998  0.2090E-01  0.1641E+01
     69.658  0.1136E-01  0.1649E+01
     70.318  0.1331E-15  0.1649E+01
     70.978  0.1220E-01  0.1657E+01
     71.638  0.4746E-01  0.1688E+01
     72.298  0.3354E-01  0.1710E+01
     72.958  0.5867E-01  0.1749E+01
     73.618  0.3112E-01  0.1770E+01
     74.278  0.3067E-01  0.1790E+01
     74.938  0.3544E-01  0.1813E+01
     75.598  0.6218E-02  0.1818E+01
     76.258  0.5682E-01  0.1855E+01
     76.918  0.1666E-01  0.1866E+01
     77.578  0.1268E-01  0.1874E+01
     78.238  0.5019E-01  0.1908E+01
     78.898  0.5544E-02  0.1911E+01
     79.558  0.1338E-01  0.1920E+01
     80.218  0.5832E-01  0.1959E+01
     80.878  0.6840E-01  0.2004E+01
     81.539  0.5092E-02  0.2007E+01
     82.199  0.6345E-02  0.2011E+01
     82.859  0.5501E-01  0.2048E+01
     83.519  0.3459E-01  0.2070E+01
     84.179  0.2845E-01  0.2089E+01
     84.839  0.5602E-01  0.2126E+01
     85.499  0.1537E-01  0.2137E+01
     86.159  0.3017E-01  0.2156E+01
     86.819  0.2560E-01  0.2173E+01
     87.479  0.4441E-01  0.2203E+01
     88.139  0.2209E-01  0.2217E+01
     88.799  0.3239E-01  0.2239E+01
     89.459  0.3531E-01  0.2262E+01
     90.119  0.1021E-01  0.2269E+01
     90.779  0.1977E-01  0.2282E+01
     91.439  0.5210E-01  0.2316E+01
     92.099  0.1719E-01  0.2328E+01
     92.759  0.5496E-01  0.2364E+01
     93.419  0.2454E-01  0.2380E+01
     94.080  0.2663E-01  0.2398E+01
     94.740  0.3580E-01  0.2421E+01
     95.400  0.3106E-01  0.2442E+01
     96.060  0.1811E-01  0.2454E+01
     96.720  0.4733E-01  0.2485E+01
     97.380  0.1050E-01  0.2492E+01
     98.040  0.4249E-01  0.2520E+01
     98.700  0.2297E-01  0.2535E+01
     99.360  0.1299E-01  0.2544E+01
    100.020  0.6189E-01  0.2585E+01
    100.680  0.5432E-01  0.2620E+01
    101.340  0.2009E-01  0.2634E+01
    102.000  0.5810E-01  0.2672E+01
    102.660  0.2626E-01  0.2689E+01
    103.320  0.4363E-01  0.2718E+01
    103.980  0.1207E-01  0.2726E+01
    104.640  0.4862E-01  0.2758E+01
    105.300  0.4900E-01  0.2791E+01
    105.960  0.1895E-01  0.2803E+01
    106.621  0.1219E-01  0.2811E+01
    107.281  0.2823E-01  0.2830E+01
    107.941  0.3280E-01  0.2852E+01
    108.601  0.2983E-01  0.2871E+01
    109.261  0.3437E-01  0.2894E+01
    109.921  0.1746E-01  0.2906E+01
    110.581  0.5864E-01  0.2944E+01
    111.241  0.8073E-01  0.2997E+01
    111.901  0.1326E-01  0.3006E+01
    112.561  0.3370E-01  0.3028E+01
    113.221  0.3264E-01  0.3050E+01
    113.881  0.4372E-01  0.3079E+01
    114.541  0.9240E-02  0.3085E+01
    115.201  0.1654E-01  0.3096E+01
    115.861  0.6288E-01  0.3137E+01
    116.521  0.2891E-01  0.3157E+01
    117.181  0.4861E-01  0.3189E+01
    117.841  0.2146E-01  0.3203E+01
    118.501  0.4716E-01  0.3234E+01
    119.161  0.3033E-01  0.3254E+01
    119.822  0.3905E-01  0.3280E+01
    120.482  0.7084E-01  0.3327E+01
    121.142  0.4483E-01  0.3356E+01
    121.802  0.2780E-01  0.3375E+01
    122.462  0.4248E-02  0.3378E+01
    123.122  0.5472E-01  0.3414E+01
    123.782  0.3423E-01  0.3436E+01
    124.442  0.1173E-01  0.3444E+01
    125.102  0.3353E-01  0.3466E+01
    125.762  0.6073E-01  0.3506E+01
    126.422  0.3083E-01  0.3527E+01
    127.082  0.2885E-01  0.3546E+01
    127.742  0.4487E-01  0.3575E+01
    128.402  0.4638E-01  0.3606E+01
    129.062  0.3129E-01  0.3627E+01
    129.722  0.3007E-01  0.3646E+01
    130.382  0.5369E-01  0.3682E+01
    131.042  0.3898E-01  0.3708E+01
    131.702  0.1156E-01  0.3715E+01
    132.363  0.2181E-01  0.3730E+01
    133.023  0.4596E-01  0.3760E+01
    133.683  0.3455E-01  0.3783E+01
    134.343  0.6019E-01  0.3822E+01
    135.003  0.6623E-02  0.3827E+01
    135.663  0.5850E-01  0.3865E+01
    136.323  0.5627E-01  0.3903E+01
    136.983  0.3955E-01  0.3929E+01
    137.643  0.5465E-01  0.3965E+01
    138.303  0.2617E-01  0.3982E+01
    138.963  0.5175E-01  0.4016E+01
    139.623  0.4089E-01  0.4043E+01
    140.283  0.2190E-01  0.4058E+01
    140.943  0.2863E-01  0.4077E+01
    141.603  0.2096E-01  0.4090E+01
    142.263  0.2381E-01  0.4106E+01
    142.923  0.4966E-01  0.4139E+01
    143.583  0.6183E-01  0.4180E+01
    144.243  0.1382E-01  0.4189E+01
    144.903  0.5666E-01  0.4226E+01
    145.564  0.3195E-01  0.4247E+01
    146.224  0.2940E-01  0.4267E+01
    146.884  0.2543E-01  0.4284E+01
    147.544  0.2542E-01  0.4300E+01
    148.204  0.2239E-01  0.4315E+01
    148.864  0.6126E-01  0.4356E+01
    149.524  0.7336E-01  0.4404E+01
    150.184  0.2311E-01  0.4419E+01
    150.844  0.9294E-01  0.4481E+01
    151.504  0.8112E-02  0.4486E+01
    152.164  0.2260E-01  0.4501E+01
    152.824  0.5594E-01  0.4538E+01
    153.484  0.1404E-01  0.4548E+01
    154.144  0.1140E-01  0.4555E+01
    154.804  0.6455E-01  0.4598E+01
    155.464  0.7379E-02  0.4603E+01
    156.124  0.2912E-01  0.4622E+01
    156.784  0.1636E-01  0.4633E+01
    157.444  0.8856E-01  0.4691E+01
    158.105  0.2768E-01  0.4710E+01
    158.765  0.3786E-01  0.4735E+01
    159.425  0.8106E-01  0.4788E+01
    160.085  0.5030E-01  0.4821E+01
    160.745  0.2751E-01  0.4839E+01
    161.405  0.8594E-02  0.4845E+01
    162.065  0.6826E-01  0.4890E+01
    162.725  0.9691E-01  0.4954E+01
    163.385  0.3552E-01  0.4978E+01
    164.045  0.2770E-01  0.4996E+01
    164.705  0.5108E-01  0.5030E+01
    165.365  0.3977E-01  0.5056E+01
    166.025  0.3420E-01  0.5079E+01
    166.685  0.5027E-01  0.5112E+01
    167.345  0.6472E-02  0.5116E+01
    168.005  0.1892E-02  0.5118E+01
    168.665  0.3786E-02  0.5120E+01
    169.325  0.0000E+00  0.5120E+01
    169.985  0.0000E+00  0.5120E+01
    170.646  0.0000E+00  0.5120E+01
    171.306  0.0000E+00  0.5120E+01
    171.966  0.0000E+00  0.5120E+01
    172.626  0.0000E+00  0.5120E+01
    173.286  0.0000E+00  0.5120E+01
    173.946  0.0000E+00  0.5120E+01
    174.606  0.0000E+00  0.5120E+01
    175.266  0.0000E+00  0.5120E+01
    175.926  0.0000E+00  0.5120E+01
    176.586  0.0000E+00  0.5120E+01
    177.246  0.0000E+00  0.5120E+01
