    4    4   50    1
  0.5656217E+01  0.2503303E-09  0.2503303E-09  0.4168969E-09  0.1000000E-15
  1.000000000000000E-004
  CAR 
 unknown system                          
     16      8    128
 
  0.0000000E+00  0.0000000E+00  0.0000000E+00  0.3125000E-01
    1      -11.768745   1.000000
    2       -6.236055   1.000000
    3       -3.660972   1.000000
    4        6.800283   1.000000
    5        6.800283   1.000000
    6        9.487731   1.000000
    7        9.845859   1.000000
    8        9.845859   1.000000
    9       14.837883   0.000000
   10       14.837883   0.000000
   11       15.175363   0.000000
   12       17.818800   0.000000
   13       19.333846   0.000000
   14       19.333847   0.000000
   15       23.705216   0.000000
   16       27.391752   0.000000
   17       27.519491   0.000000
   18       30.024682   0.000000
   19       30.024682   0.000000
   20       30.222184   0.000000
   21       31.937316   0.000000
   22       35.058495   0.000000
   23       35.058495   0.000000
   24       36.485772   0.000000
   25       44.260537   0.000000
   26       44.260538   0.000000
   27       46.744917   0.000000
   28       49.551988   0.000000
   29       49.551988   0.000000
   30       51.698633   0.000000
   31       51.698633   0.000000
   32       52.909332   0.000000
   33       54.699446   0.000000
   34       54.699446   0.000000
   35       60.106668   0.000000
   36       64.215631   0.000000
   37       65.303719   0.000000
   38       65.303719   0.000000
   39       65.338707   0.000000
   40       68.565436   0.000000
   41       68.565437   0.000000
   42       72.973248   0.000000
   43       76.779526   0.000000
   44       77.226261   0.000000
   45       77.226261   0.000000
   46       82.490360   0.000000
   47       82.490360   0.000000
   48       83.708634   0.000000
   49       83.708635   0.000000
   50       84.386336   0.000000
   51       89.491894   0.000000
   52       89.491894   0.000000
   53       89.664791   0.000000
   54       92.365656   0.000000
   55       92.365656   0.000000
   56       92.366862   0.000000
   57       92.646266   0.000000
   58       92.646266   0.000000
   59       92.813055   0.000000
   60       95.370334   0.000000
   61       95.370334   0.000000
   62       96.515825   0.000000
   63       97.674993   0.000000
   64       97.897197   0.000000
   65       99.923209   0.000000
   66       99.923209   0.000000
   67      100.721710   0.000000
   68      100.721710   0.000000
   69      102.267917   0.000000
   70      106.789061   0.000000
   71      106.789061   0.000000
   72      109.410258   0.000000
   73      109.410259   0.000000
   74      111.657069   0.000000
   75      112.630658   0.000000
   76      112.630658   0.000000
   77      115.441992   0.000000
   78      116.095357   0.000000
   79      116.095357   0.000000
   80      116.344287   0.000000
   81      118.551917   0.000000
   82      118.551917   0.000000
   83      119.346662   0.000000
   84      119.507803   0.000000
   85      119.711949   0.000000
   86      119.711949   0.000000
   87      120.262664   0.000000
   88      120.507942   0.000000
   89      120.507942   0.000000
   90      120.513487   0.000000
   91      120.673393   0.000000
   92      121.086546   0.000000
   93      121.643633   0.000000
   94      125.039304   0.000000
   95      125.039305   0.000000
   96      126.575052   0.000000
   97      126.575053   0.000000
   98      130.663397   0.000000
   99      134.158544   0.000000
  100      135.621470   0.000000
  101      136.463440   0.000000
  102      139.099852   0.000000
  103      139.099852   0.000000
  104      139.954159   0.000000
  105      139.954160   0.000000
  106      146.875465   0.000000
  107      146.875465   0.000000
  108      147.927204   0.000000
  109      147.927204   0.000000
  110      149.342977   0.000000
  111      149.342977   0.000000
  112      149.354230   0.000000
  113      149.354230   0.000000
  114      150.901349   0.000000
  115      150.968964   0.000000
  116      151.341128   0.000000
  117      152.729470   0.000000
  118      157.258568   0.000000
  119      157.794616   0.000000
  120      157.794616   0.000000
  121      157.977277   0.000000
  122      157.977277   0.000000
  123      159.007206   0.000000
  124      159.007207   0.000000
  125      159.755061   0.000000
  126      159.755061   0.000000
  127      161.694562   0.000000
  128      161.694562   0.000000
 
  0.2500000E+00 -0.2347310E-16  0.0000000E+00  0.1875000E+00
    1      -10.241061   1.000000
    2       -4.856620   1.000000
    3       -2.323593   1.000000
    4        1.603872   1.000000
    5        4.783946   1.000000
    6        5.359160   1.000000
    7        7.431120   1.000000
    8        8.001039   1.000000
    9       14.774814   0.000000
   10       16.757760   0.000000
   11       17.310395   0.000000
   12       19.949787   0.000000
   13       19.986150   0.000000
   14       23.005383   0.000000
   15       24.532904   0.000000
   16       25.163120   0.000000
   17       26.086700   0.000000
   18       27.891762   0.000000
   19       29.830021   0.000000
   20       30.564046   0.000000
   21       36.519850   0.000000
   22       36.807687   0.000000
   23       41.690874   0.000000
   24       42.047778   0.000000
   25       43.726459   0.000000
   26       45.488287   0.000000
   27       46.467853   0.000000
   28       47.848166   0.000000
   29       50.878912   0.000000
   30       51.071906   0.000000
   31       52.521693   0.000000
   32       53.923752   0.000000
   33       58.277449   0.000000
   34       58.581888   0.000000
   35       59.460432   0.000000
   36       61.929034   0.000000
   37       62.104733   0.000000
   38       63.942048   0.000000
   39       64.462903   0.000000
   40       69.270219   0.000000
   41       71.061654   0.000000
   42       71.454705   0.000000
   43       72.074106   0.000000
   44       72.769388   0.000000
   45       72.791734   0.000000
   46       77.714796   0.000000
   47       77.965960   0.000000
   48       80.622810   0.000000
   49       82.775641   0.000000
   50       83.512065   0.000000
   51       84.131730   0.000000
   52       84.699117   0.000000
   53       86.674029   0.000000
   54       88.295719   0.000000
   55       88.484722   0.000000
   56       90.747421   0.000000
   57       91.001283   0.000000
   58       91.584200   0.000000
   59       94.914355   0.000000
   60       95.093554   0.000000
   61       96.295334   0.000000
   62       97.376330   0.000000
   63       97.809924   0.000000
   64       98.695604   0.000000
   65      100.279580   0.000000
   66      100.417630   0.000000
   67      100.817970   0.000000
   68      102.760666   0.000000
   69      103.801869   0.000000
   70      104.862260   0.000000
   71      106.354347   0.000000
   72      107.708954   0.000000
   73      108.863408   0.000000
   74      109.000561   0.000000
   75      110.181872   0.000000
   76      110.868218   0.000000
   77      112.465562   0.000000
   78      113.400644   0.000000
   79      113.595279   0.000000
   80      116.932516   0.000000
   81      116.986762   0.000000
   82      117.836966   0.000000
   83      119.041180   0.000000
   84      119.617873   0.000000
   85      120.358231   0.000000
   86      120.910678   0.000000
   87      121.184975   0.000000
   88      123.124084   0.000000
   89      124.569009   0.000000
   90      126.095795   0.000000
   91      126.527982   0.000000
   92      129.724908   0.000000
   93      130.533735   0.000000
   94      130.690332   0.000000
   95      132.897263   0.000000
   96      133.284456   0.000000
   97      135.964766   0.000000
   98      136.947776   0.000000
   99      137.374402   0.000000
  100      138.418551   0.000000
  101      138.681953   0.000000
  102      139.384391   0.000000
  103      139.680598   0.000000
  104      142.850053   0.000000
  105      143.407625   0.000000
  106      144.365936   0.000000
  107      144.984327   0.000000
  108      145.155035   0.000000
  109      146.962122   0.000000
  110      148.360122   0.000000
  111      148.763895   0.000000
  112      150.032434   0.000000
  113      150.187257   0.000000
  114      152.698088   0.000000
  115      154.513710   0.000000
  116      154.749857   0.000000
  117      157.211798   0.000000
  118      157.577555   0.000000
  119      158.198980   0.000000
  120      158.636020   0.000000
  121      159.495714   0.000000
  122      161.666433   0.000000
  123      162.257087   0.000000
  124      164.321895   0.000000
  125      164.556792   0.000000
  126      164.591398   0.000000
  127      164.834714   0.000000
  128      166.318231   0.000000
 
  0.5000000E+00 -0.4694621E-16  0.0000000E+00  0.9375000E-01
    1       -6.571799   1.000000
    2       -4.736849   1.000000
    3       -1.426549   1.000000
    4       -0.068346   1.000000
    5        0.729909   1.000000
    6        3.457764   1.000000
    7        4.036117   1.000000
    8        6.744762   1.000000
    9       14.302353   0.000000
   10       18.024594   0.000000
   11       18.194829   0.000000
   12       18.197055   0.000000
   13       20.664717   0.000000
   14       22.554252   0.000000
   15       26.319647   0.000000
   16       28.371027   0.000000
   17       28.616818   0.000000
   18       29.630400   0.000000
   19       30.856164   0.000000
   20       32.762336   0.000000
   21       35.350889   0.000000
   22       35.937931   0.000000
   23       40.668902   0.000000
   24       45.547487   0.000000
   25       45.850067   0.000000
   26       46.379491   0.000000
   27       47.545354   0.000000
   28       49.230386   0.000000
   29       52.152672   0.000000
   30       53.632569   0.000000
   31       55.946717   0.000000
   32       56.272470   0.000000
   33       57.300278   0.000000
   34       58.422785   0.000000
   35       58.856007   0.000000
   36       61.210115   0.000000
   37       63.041156   0.000000
   38       64.996071   0.000000
   39       66.495071   0.000000
   40       66.800627   0.000000
   41       67.888149   0.000000
   42       68.240964   0.000000
   43       71.635875   0.000000
   44       72.993967   0.000000
   45       73.223067   0.000000
   46       73.421963   0.000000
   47       76.394100   0.000000
   48       78.377867   0.000000
   49       79.620372   0.000000
   50       79.718946   0.000000
   51       81.451239   0.000000
   52       81.722347   0.000000
   53       82.355902   0.000000
   54       82.811305   0.000000
   55       84.662920   0.000000
   56       87.088208   0.000000
   57       87.354772   0.000000
   58       89.836358   0.000000
   59       91.192118   0.000000
   60       91.319146   0.000000
   61       91.921684   0.000000
   62       93.780469   0.000000
   63       95.296197   0.000000
   64       95.722019   0.000000
   65       98.327846   0.000000
   66       99.618935   0.000000
   67       99.810288   0.000000
   68      101.733292   0.000000
   69      104.379921   0.000000
   70      105.713845   0.000000
   71      109.377109   0.000000
   72      110.016704   0.000000
   73      110.156729   0.000000
   74      112.810242   0.000000
   75      113.489117   0.000000
   76      113.877116   0.000000
   77      115.264110   0.000000
   78      117.451619   0.000000
   79      117.591194   0.000000
   80      117.798645   0.000000
   81      118.179748   0.000000
   82      119.210774   0.000000
   83      121.848461   0.000000
   84      122.937263   0.000000
   85      124.707598   0.000000
   86      125.261496   0.000000
   87      126.475758   0.000000
   88      126.600329   0.000000
   89      128.161197   0.000000
   90      129.829894   0.000000
   91      131.201986   0.000000
   92      131.374235   0.000000
   93      133.260807   0.000000
   94      135.057511   0.000000
   95      135.089384   0.000000
   96      135.410150   0.000000
   97      135.929291   0.000000
   98      136.530119   0.000000
   99      137.491514   0.000000
  100      138.490690   0.000000
  101      139.925104   0.000000
  102      141.545280   0.000000
  103      142.317840   0.000000
  104      144.986183   0.000000
  105      145.376019   0.000000
  106      145.955618   0.000000
  107      147.027471   0.000000
  108      148.459587   0.000000
  109      149.143245   0.000000
  110      149.447214   0.000000
  111      149.572734   0.000000
  112      152.555622   0.000000
  113      152.855048   0.000000
  114      154.495346   0.000000
  115      154.746898   0.000000
  116      156.975845   0.000000
  117      157.485691   0.000000
  118      159.302915   0.000000
  119      159.688463   0.000000
  120      160.664643   0.000000
  121      161.480235   0.000000
  122      162.045907   0.000000
  123      162.308422   0.000000
  124      163.755427   0.000000
  125      165.230724   0.000000
  126      166.375628   0.000000
  127      166.508802   0.000000
  128      166.608387   0.000000
 
  0.2500000E+00  0.2500000E+00  0.0000000E+00  0.1875000E+00
    1       -7.326185   1.000000
    2       -2.512648   1.000000
    3       -2.209804   1.000000
    4        0.383051   1.000000
    5        0.798487   1.000000
    6        2.230719   1.000000
    7        4.340891   1.000000
    8        4.796100   1.000000
    9       14.418424   0.000000
   10       19.500704   0.000000
   11       19.611695   0.000000
   12       20.536732   0.000000
   13       23.009013   0.000000
   14       23.756177   0.000000
   15       23.994051   0.000000
   16       25.094358   0.000000
   17       27.054347   0.000000
   18       28.176163   0.000000
   19       29.165530   0.000000
   20       33.122942   0.000000
   21       33.771686   0.000000
   22       39.814054   0.000000
   23       40.597390   0.000000
   24       41.621307   0.000000
   25       45.107937   0.000000
   26       49.457087   0.000000
   27       49.625764   0.000000
   28       50.390623   0.000000
   29       51.680312   0.000000
   30       54.178035   0.000000
   31       56.639991   0.000000
   32       57.061331   0.000000
   33       57.264307   0.000000
   34       58.765619   0.000000
   35       59.309163   0.000000
   36       62.081466   0.000000
   37       63.841874   0.000000
   38       65.121814   0.000000
   39       65.717955   0.000000
   40       66.281679   0.000000
   41       67.440706   0.000000
   42       68.498848   0.000000
   43       70.857210   0.000000
   44       72.064345   0.000000
   45       72.414252   0.000000
   46       73.654875   0.000000
   47       74.697187   0.000000
   48       76.854217   0.000000
   49       77.720875   0.000000
   50       79.472498   0.000000
   51       80.080117   0.000000
   52       80.424163   0.000000
   53       83.028611   0.000000
   54       83.371979   0.000000
   55       84.962870   0.000000
   56       85.807596   0.000000
   57       86.699569   0.000000
   58       89.089427   0.000000
   59       92.255770   0.000000
   60       92.554766   0.000000
   61       93.579002   0.000000
   62       94.372658   0.000000
   63       95.512082   0.000000
   64       99.329279   0.000000
   65      100.100254   0.000000
   66      101.553413   0.000000
   67      101.740760   0.000000
   68      102.813386   0.000000
   69      104.637944   0.000000
   70      104.697317   0.000000
   71      106.908442   0.000000
   72      107.286876   0.000000
   73      109.900502   0.000000
   74      110.730452   0.000000
   75      110.942482   0.000000
   76      111.623913   0.000000
   77      115.637039   0.000000
   78      116.718349   0.000000
   79      118.830543   0.000000
   80      119.243280   0.000000
   81      120.384303   0.000000
   82      120.398211   0.000000
   83      122.682250   0.000000
   84      122.934023   0.000000
   85      124.802881   0.000000
   86      125.259824   0.000000
   87      126.345647   0.000000
   88      127.144727   0.000000
   89      129.246249   0.000000
   90      130.782914   0.000000
   91      131.842626   0.000000
   92      132.250567   0.000000
   93      132.609890   0.000000
   94      134.106061   0.000000
   95      135.384006   0.000000
   96      135.633450   0.000000
   97      136.687767   0.000000
   98      136.957339   0.000000
   99      137.516568   0.000000
  100      140.806430   0.000000
  101      141.800038   0.000000
  102      142.186454   0.000000
  103      142.403405   0.000000
  104      142.723860   0.000000
  105      143.617806   0.000000
  106      146.319092   0.000000
  107      147.500356   0.000000
  108      148.158436   0.000000
  109      148.566695   0.000000
  110      148.957282   0.000000
  111      149.157836   0.000000
  112      150.797780   0.000000
  113      151.869560   0.000000
  114      152.588585   0.000000
  115      153.745063   0.000000
  116      156.113251   0.000000
  117      156.443407   0.000000
  118      157.011040   0.000000
  119      158.129793   0.000000
  120      158.911046   0.000000
  121      159.181720   0.000000
  122      160.360319   0.000000
  123      160.591096   0.000000
  124      161.416885   0.000000
  125      162.189738   0.000000
  126      163.131854   0.000000
  127      163.559728   0.000000
  128      165.647482   0.000000
 
  0.0000000E+00  0.0000000E+00  0.5000000E+00  0.3125000E-01
    1      -10.101661   1.000000
    2      -10.101661   1.000000
    3        2.945856   1.000000
    4        2.945856   1.000000
    5        8.023380   1.000000
    6        8.023380   1.000000
    7        8.023380   1.000000
    8        8.023380   1.000000
    9       17.084460   0.000000
   10       17.084460   0.000000
   11       17.084460   0.000000
   12       17.084460   0.000000
   13       17.407099   0.000000
   14       17.407099   0.000000
   15       25.082741   0.000000
   16       25.082741   0.000000
   17       28.680150   0.000000
   18       28.680150   0.000000
   19       34.423219   0.000000
   20       34.423219   0.000000
   21       34.423219   0.000000
   22       34.423219   0.000000
   23       36.459044   0.000000
   24       36.459044   0.000000
   25       41.471825   0.000000
   26       41.471825   0.000000
   27       41.471825   0.000000
   28       41.471825   0.000000
   29       48.375832   0.000000
   30       48.375832   0.000000
   31       56.398562   0.000000
   32       56.398562   0.000000
   33       57.830491   0.000000
   34       57.830491   0.000000
   35       57.830492   0.000000
   36       57.830492   0.000000
   37       72.141578   0.000000
   38       72.141578   0.000000
   39       72.141579   0.000000
   40       72.141579   0.000000
   41       75.002951   0.000000
   42       75.002951   0.000000
   43       75.002951   0.000000
   44       75.002951   0.000000
   45       79.855313   0.000000
   46       79.855313   0.000000
   47       82.539861   0.000000
   48       82.539861   0.000000
   49       82.539861   0.000000
   50       82.539861   0.000000
   51       82.861779   0.000000
   52       82.861779   0.000000
   53       86.263485   0.000000
   54       86.263485   0.000000
   55       86.991803   0.000000
   56       86.991803   0.000000
   57       86.991803   0.000000
   58       86.991803   0.000000
   59       90.971980   0.000000
   60       90.971980   0.000000
   61       96.893730   0.000000
   62       96.893730   0.000000
   63      101.776070   0.000000
   64      101.776070   0.000000
   65      101.776071   0.000000
   66      101.776071   0.000000
   67      105.340291   0.000000
   68      105.340291   0.000000
   69      108.050605   0.000000
   70      108.050605   0.000000
   71      108.050605   0.000000
   72      108.050605   0.000000
   73      113.947092   0.000000
   74      113.947092   0.000000
   75      113.947092   0.000000
   76      113.947092   0.000000
   77      115.019616   0.000000
   78      115.019616   0.000000
   79      116.608366   0.000000
   80      116.608366   0.000000
   81      119.206923   0.000000
   82      119.206923   0.000000
   83      119.206923   0.000000
   84      119.206923   0.000000
   85      121.109501   0.000000
   86      121.109501   0.000000
   87      123.292714   0.000000
   88      123.292714   0.000000
   89      126.171832   0.000000
   90      126.171832   0.000000
   91      126.171833   0.000000
   92      126.171833   0.000000
   93      127.701753   0.000000
   94      127.701753   0.000000
   95      127.701753   0.000000
   96      127.701753   0.000000
   97      133.145133   0.000000
   98      133.145133   0.000000
   99      133.145133   0.000000
  100      133.145133   0.000000
  101      134.744032   0.000000
  102      134.744032   0.000000
  103      135.753918   0.000000
  104      135.753918   0.000000
  105      135.753918   0.000000
  106      135.753918   0.000000
  107      137.674999   0.000000
  108      137.674999   0.000000
  109      138.229172   0.000000
  110      138.229172   0.000000
  111      138.229172   0.000000
  112      138.229172   0.000000
  113      139.229153   0.000000
  114      139.229153   0.000000
  115      143.743997   0.000000
  116      143.743997   0.000000
  117      154.940120   0.000000
  118      154.940120   0.000000
  119      159.216392   0.000000
  120      159.216392   0.000000
  121      159.216393   0.000000
  122      159.216393   0.000000
  123      167.297457   0.000000
  124      167.297457   0.000000
  125      167.297458   0.000000
  126      167.297458   0.000000
  127      168.245313   0.000000
  128      168.245313   0.000000
 
  0.2500000E+00 -0.2347310E-16  0.5000000E+00  0.1875000E+00
    1       -8.600611   1.000000
    2       -8.600611   1.000000
    3        2.510362   1.000000
    4        2.510362   1.000000
    5        4.267109   1.000000
    6        4.267109   1.000000
    7        6.100974   1.000000
    8        6.100974   1.000000
    9       15.883657   0.000000
   10       15.883657   0.000000
   11       19.225400   0.000000
   12       19.225400   0.000000
   13       20.309430   0.000000
   14       20.309430   0.000000
   15       24.369253   0.000000
   16       24.369253   0.000000
   17       29.025486   0.000000
   18       29.025486   0.000000
   19       33.097698   0.000000
   20       33.097698   0.000000
   21       33.764679   0.000000
   22       33.764679   0.000000
   23       39.704656   0.000000
   24       39.704656   0.000000
   25       46.795897   0.000000
   26       46.795897   0.000000
   27       46.991399   0.000000
   28       46.991399   0.000000
   29       50.584391   0.000000
   30       50.584391   0.000000
   31       54.486255   0.000000
   32       54.486255   0.000000
   33       54.608441   0.000000
   34       54.608441   0.000000
   35       60.014793   0.000000
   36       60.014793   0.000000
   37       65.709834   0.000000
   38       65.709834   0.000000
   39       67.073184   0.000000
   40       67.073184   0.000000
   41       73.969401   0.000000
   42       73.969401   0.000000
   43       74.557859   0.000000
   44       74.557859   0.000000
   45       76.082435   0.000000
   46       76.082435   0.000000
   47       77.620843   0.000000
   48       77.620843   0.000000
   49       80.555285   0.000000
   50       80.555285   0.000000
   51       84.460604   0.000000
   52       84.460604   0.000000
   53       85.562534   0.000000
   54       85.562534   0.000000
   55       87.021859   0.000000
   56       87.021859   0.000000
   57       90.907306   0.000000
   58       90.907306   0.000000
   59       92.421874   0.000000
   60       92.421874   0.000000
   61       97.506475   0.000000
   62       97.506475   0.000000
   63       99.948785   0.000000
   64       99.948785   0.000000
   65      102.368106   0.000000
   66      102.368106   0.000000
   67      103.191048   0.000000
   68      103.191048   0.000000
   69      104.427671   0.000000
   70      104.427671   0.000000
   71      107.308775   0.000000
   72      107.308775   0.000000
   73      110.742294   0.000000
   74      110.742294   0.000000
   75      112.279747   0.000000
   76      112.279747   0.000000
   77      112.809329   0.000000
   78      112.809329   0.000000
   79      115.352329   0.000000
   80      115.352329   0.000000
   81      115.944750   0.000000
   82      115.944750   0.000000
   83      120.469343   0.000000
   84      120.469343   0.000000
   85      121.166997   0.000000
   86      121.166997   0.000000
   87      123.568596   0.000000
   88      123.568596   0.000000
   89      125.193074   0.000000
   90      125.193074   0.000000
   91      127.767085   0.000000
   92      127.767085   0.000000
   93      130.266440   0.000000
   94      130.266440   0.000000
   95      132.790658   0.000000
   96      132.790658   0.000000
   97      134.139633   0.000000
   98      134.139633   0.000000
   99      135.658222   0.000000
  100      135.658222   0.000000
  101      137.586201   0.000000
  102      137.586201   0.000000
  103      139.544532   0.000000
  104      139.544532   0.000000
  105      143.109847   0.000000
  106      143.109847   0.000000
  107      144.359687   0.000000
  108      144.359687   0.000000
  109      148.946108   0.000000
  110      148.946108   0.000000
  111      150.293434   0.000000
  112      150.293434   0.000000
  113      150.582976   0.000000
  114      150.582976   0.000000
  115      152.633666   0.000000
  116      152.633666   0.000000
  117      157.135658   0.000000
  118      157.135658   0.000000
  119      159.502498   0.000000
  120      159.502498   0.000000
  121      162.112763   0.000000
  122      162.112763   0.000000
  123      162.314425   0.000000
  124      162.314425   0.000000
  125      163.334756   0.000000
  126      163.334756   0.000000
  127      165.171322   0.000000
  128      165.171322   0.000000
 
  0.5000000E+00 -0.4694621E-16  0.5000000E+00  0.9375000E-01
    1       -5.075095   1.000000
    2       -5.075095   1.000000
    3       -3.019004   1.000000
    4       -3.019004   1.000000
    5        4.808394   1.000000
    6        4.808394   1.000000
    7        5.149677   1.000000
    8        5.149677   1.000000
    9       15.706122   0.000000
   10       15.706122   0.000000
   11       16.353456   0.000000
   12       16.353456   0.000000
   13       22.337059   0.000000
   14       22.337059   0.000000
   15       25.681860   0.000000
   16       25.681860   0.000000
   17       31.124122   0.000000
   18       31.124122   0.000000
   19       33.879455   0.000000
   20       33.879455   0.000000
   21       37.498436   0.000000
   22       37.498436   0.000000
   23       38.689175   0.000000
   24       38.689175   0.000000
   25       44.681335   0.000000
   26       44.681335   0.000000
   27       48.096577   0.000000
   28       48.096577   0.000000
   29       56.984352   0.000000
   30       56.984352   0.000000
   31       57.146056   0.000000
   32       57.146056   0.000000
   33       60.722092   0.000000
   34       60.722092   0.000000
   35       62.274884   0.000000
   36       62.274884   0.000000
   37       62.947470   0.000000
   38       62.947470   0.000000
   39       64.501033   0.000000
   40       64.501033   0.000000
   41       65.023960   0.000000
   42       65.023960   0.000000
   43       65.420595   0.000000
   44       65.420595   0.000000
   45       73.138637   0.000000
   46       73.138637   0.000000
   47       76.020422   0.000000
   48       76.020422   0.000000
   49       79.635028   0.000000
   50       79.635028   0.000000
   51       83.642901   0.000000
   52       83.642901   0.000000
   53       84.387451   0.000000
   54       84.387451   0.000000
   55       88.216805   0.000000
   56       88.216805   0.000000
   57       90.298086   0.000000
   58       90.298086   0.000000
   59       94.189654   0.000000
   60       94.189654   0.000000
   61       96.378213   0.000000
   62       96.378213   0.000000
   63       98.235184   0.000000
   64       98.235184   0.000000
   65       99.667995   0.000000
   66       99.667995   0.000000
   67       99.833179   0.000000
   68       99.833179   0.000000
   69      104.434333   0.000000
   70      104.434333   0.000000
   71      105.855917   0.000000
   72      105.855917   0.000000
   73      109.082922   0.000000
   74      109.082922   0.000000
   75      110.513197   0.000000
   76      110.513197   0.000000
   77      113.741844   0.000000
   78      113.741844   0.000000
   79      114.991970   0.000000
   80      114.991970   0.000000
   81      117.023556   0.000000
   82      117.023556   0.000000
   83      118.377776   0.000000
   84      118.377776   0.000000
   85      123.970689   0.000000
   86      123.970689   0.000000
   87      128.024645   0.000000
   88      128.024645   0.000000
   89      128.299884   0.000000
   90      128.299884   0.000000
   91      133.881201   0.000000
   92      133.881201   0.000000
   93      135.099803   0.000000
   94      135.099803   0.000000
   95      138.100869   0.000000
   96      138.100869   0.000000
   97      140.410567   0.000000
   98      140.410567   0.000000
   99      142.702733   0.000000
  100      142.702733   0.000000
  101      144.354230   0.000000
  102      144.354230   0.000000
  103      144.540984   0.000000
  104      144.540984   0.000000
  105      146.574712   0.000000
  106      146.574712   0.000000
  107      149.220690   0.000000
  108      149.220690   0.000000
  109      150.459315   0.000000
  110      150.459315   0.000000
  111      152.001978   0.000000
  112      152.001978   0.000000
  113      152.896994   0.000000
  114      152.896994   0.000000
  115      154.384257   0.000000
  116      154.384257   0.000000
  117      157.082432   0.000000
  118      157.082432   0.000000
  119      158.708455   0.000000
  120      158.708455   0.000000
  121      159.005142   0.000000