unknown system                          
           1
     2.503303    0.000000    0.000000
    -1.251651    2.167924    0.000000
     0.000000    0.000000    4.168969
   C 
     4
Direct configuration=     1
   0.33333333  0.66666667  0.06280535
   0.66666667  0.33333333  0.93719465
   0.66666667  0.33333333  0.56280535
   0.33333333  0.66666667  0.43719465
unknown system                          
           1
     2.509261   -0.000000    0.000000
    -1.254630    2.173083    0.000000
     0.000000    0.000000    4.174296
   C 
     4
Direct configuration=     2
   0.33333333  0.66666667  0.06243622
   0.66666667  0.33333333  0.93756378
   0.66666667  0.33333333  0.56243622
   0.33333333  0.66666667  0.43756378
unknown system                          
           1
     2.516220   -0.000000    0.000000
    -1.258110    2.179110    0.000000
     0.000000    0.000000    4.180519
   C 
     4
Direct configuration=     3
   0.33333333  0.66666667  0.06200560
   0.66666667  0.33333333  0.93799440
   0.66666667  0.33333333  0.56200560
   0.33333333  0.66666667  0.43799440
unknown system                          
           1
     2.515841   -0.000000    0.000000
    -1.257920    2.178782    0.000000
     0.000000    0.000000    4.180180
   C 
     4
Direct configuration=     4
   0.33333333  0.66666667  0.06202901
   0.66666667  0.33333333  0.93797099
   0.66666667  0.33333333  0.56202901
   0.33333333  0.66666667  0.43797099
unknown system                          
           1
     2.515752   -0.000000    0.000000
    -1.257876    2.178705    0.000000
     0.000000    0.000000    4.180101
   C 
     4
Direct configuration=     5
   0.33333333  0.66666667  0.06203449
   0.66666667  0.33333333  0.93796551
   0.66666667  0.33333333  0.56203449
   0.33333333  0.66666667  0.43796551
unknown system                          
           1
     2.516520    0.000000    0.000000
    -1.258260    2.179370    0.000000
     0.000000    0.000000    4.180357
   C 
     4
Direct configuration=     6
   0.33333333  0.66666667  0.06219378
   0.66666667  0.33333333  0.93780622
   0.66666667  0.33333333  0.56219378
   0.33333333  0.66666667  0.43780622
