   2   2   0   0
  0.5959285E+01  0.2563971E-09  0.2563971E-09  0.2563971E-09  0.1000000E-15
  1.000000000000000E-004
  CAR 
 unknown system                          
    290.96959651    -27.24023709  301      8.02801947      1.00000000
    -27.240  0.0000E+00  0.0000E+00
    -26.180  0.0000E+00  0.0000E+00
    -25.119  0.0000E+00  0.0000E+00
    -24.058  0.0000E+00  0.0000E+00
    -22.997  0.0000E+00  0.0000E+00
    -21.937  0.0000E+00  0.0000E+00
    -20.876  0.0000E+00  0.0000E+00
    -19.815  0.0000E+00  0.0000E+00
    -18.755  0.0000E+00  0.0000E+00
    -17.694  0.0000E+00  0.0000E+00
    -16.633  0.0000E+00  0.0000E+00
    -15.573  0.0000E+00  0.0000E+00
    -14.512  0.0000E+00  0.0000E+00
    -13.451  0.0000E+00  0.0000E+00
    -12.390  0.1178E-02  0.1250E-02
    -11.330  0.2045E-02  0.3419E-02
    -10.269  0.2357E-02  0.8750E-02
     -9.208  0.1452E-02  0.1029E-01
     -8.148  0.1516E-01  0.2983E-01
     -7.087  0.3699E-02  0.3767E-01
     -6.026  0.0000E+00  0.4000E-01
     -4.966  0.0000E+00  0.4000E-01
     -3.905  0.0000E+00  0.4000E-01
     -2.844  0.4714E-02  0.4500E-01
     -1.783  0.3256E-05  0.4500E-01
     -0.723  0.1414E-01  0.6375E-01
      0.338  0.7393E-02  0.7159E-01
      1.399  0.2357E-02  0.7625E-01
      2.459  0.2809E-01  0.1060E+00
      3.520  0.2628E-02  0.1115E+00
      4.581  0.4714E-02  0.1312E+00
      5.641  0.1414E-01  0.1462E+00
      6.702  0.9428E-02  0.1562E+00
      7.763  0.3535E-02  0.1600E+00
      8.824  0.0000E+00  0.1600E+00
      9.884  0.0000E+00  0.1600E+00
     10.945  0.0000E+00  0.1600E+00
     12.006  0.3535E-02  0.1637E+00
     13.066  0.0000E+00  0.1638E+00
     14.127  0.2354E-02  0.1662E+00
     15.188  0.1414E-01  0.1812E+00
     16.248  0.4252E-02  0.1858E+00
     17.309  0.1788E-01  0.2077E+00
     18.370  0.9432E-02  0.2275E+00
     19.431  0.4708E-02  0.2350E+00
     20.491  0.2489E-01  0.2614E+00
     21.552  0.2439E-01  0.2934E+00
     22.613  0.4714E-02  0.3125E+00
     23.673  0.0000E+00  0.3125E+00
     24.734  0.2780E-03  0.3128E+00
     25.795  0.2357E-02  0.3225E+00
     26.855  0.5606E-02  0.3284E+00
     27.916  0.3522E-02  0.3437E+00
     28.977  0.5162E-02  0.3492E+00
     30.038  0.4003E-08  0.3538E+00
     31.098  0.1886E-01  0.3738E+00
     32.159  0.1179E-02  0.3750E+00
     33.220  0.5841E-02  0.3812E+00
     34.280  0.2475E-01  0.4187E+00
     35.341  0.9591E-02  0.4289E+00
     36.402  0.8763E-03  0.4459E+00
     37.462  0.4869E-03  0.4480E+00
     38.523  0.5893E-14  0.4500E+00
     39.584  0.1414E-01  0.4650E+00
     40.645  0.1563E-01  0.4816E+00
     41.705  0.6115E-04  0.4851E+00
     42.766  0.1271E-02  0.4963E+00
     43.827  0.1293E-01  0.5125E+00
     44.887  0.0000E+00  0.5188E+00
     45.948  0.7853E-02  0.5271E+00
     47.009  0.3535E-02  0.5363E+00
     48.069  0.2000E-04  0.5363E+00
     49.130  0.9427E-02  0.5662E+00
     50.191  0.1158E-01  0.5785E+00
     51.252  0.3151E-02  0.5946E+00
     52.312  0.7028E-02  0.6162E+00
     53.373  0.2041E-01  0.6379E+00
     54.434  0.3535E-02  0.6463E+00
     55.494  0.2365E-02  0.6488E+00
     56.555  0.7915E-03  0.6571E+00
     57.616  0.1047E-01  0.6736E+00
     58.676  0.3527E-01  0.7112E+00
     59.737  0.1414E-01  0.7363E+00
     60.798  0.4714E-02  0.7438E+00
     61.859  0.3747E-02  0.7477E+00
     62.919  0.2357E-02  0.7512E+00
     63.980  0.1413E-01  0.7662E+00
     65.041  0.2593E-01  0.7975E+00
     66.101  0.9428E-02  0.8075E+00
     67.162  0.2739E-01  0.8366E+00
     68.223  0.1411E-01  0.8525E+00
     69.283  0.2378E-06  0.8525E+00
     70.344  0.1171E-01  0.8649E+00
     71.405  0.1463E-01  0.8830E+00
     72.466  0.2357E-02  0.8900E+00
     73.526  0.1886E-01  0.9100E+00
     74.587  0.1532E-01  0.9312E+00
     75.648  0.2807E-01  0.9610E+00
     76.708  0.7883E-02  0.9721E+00
     77.769  0.2363E-02  0.9813E+00
     78.830  0.2357E-02  0.9887E+00
     79.890  0.2893E-01  0.1019E+01
     80.951  0.6133E-02  0.1033E+01
     82.012  0.9428E-02  0.1055E+01
     83.073  0.1768E-01  0.1074E+01
     84.133  0.8159E-02  0.1102E+01
     85.194  0.3818E-03  0.1103E+01
     86.255  0.2946E-01  0.1139E+01
     87.315  0.1886E-01  0.1159E+01
     88.376  0.8270E-02  0.1168E+01
     89.437  0.1886E-01  0.1190E+01
     90.497  0.6280E-17  0.1194E+01
     91.558  0.1300E-01  0.1208E+01
     92.619  0.1650E-01  0.1227E+01
     93.679  0.4714E-02  0.1233E+01
     94.740  0.1296E-01  0.1246E+01
     95.801  0.1906E-01  0.1266E+01
     96.862  0.3206E-02  0.1275E+01
     97.922  0.3682E-01  0.1318E+01
     98.983  0.5525E-02  0.1337E+01
    100.044  0.4401E-02  0.1343E+01
    101.104  0.2202E-01  0.1372E+01
    102.165  0.2526E-01  0.1401E+01
    103.226  0.1403E-01  0.1420E+01
    104.286  0.9258E-02  0.1430E+01
    105.347  0.3225E-01  0.1469E+01
    106.408  0.1997E-01  0.1496E+01
    107.469  0.9412E-02  0.1509E+01
    108.529  0.4714E-02  0.1514E+01
    109.590  0.1650E-01  0.1531E+01
    110.651  0.3922E-02  0.1538E+01
    111.711  0.1092E-02  0.1544E+01
    112.772  0.2121E-01  0.1575E+01
    113.833  0.1766E-01  0.1594E+01
    114.893  0.2478E-01  0.1621E+01
    115.954  0.1529E-01  0.1641E+01
    117.015  0.7766E-02  0.1653E+01
    118.076  0.1178E-01  0.1681E+01
    119.136  0.6101E-02  0.1688E+01
    120.197  0.3639E-02  0.1699E+01
    121.258  0.4242E-01  0.1750E+01
    122.318  0.7071E-02  0.1757E+01
    123.379  0.1023E-01  0.1768E+01
    124.440  0.1156E-01  0.1786E+01
    125.500  0.7398E-02  0.1807E+01
    126.561  0.1287E-01  0.1836E+01
    127.622  0.1553E-01  0.1858E+01
    128.683  0.2017E-01  0.1890E+01
    129.743  0.6913E-06  0.1901E+01
    130.804  0.1886E-01  0.1923E+01
    131.865  0.3690E-01  0.1972E+01
    132.925  0.1414E-01  0.1992E+01
    133.986  0.1422E-01  0.2008E+01
    135.047  0.1061E-01  0.2025E+01
    136.107  0.1482E-02  0.2027E+01
    137.168  0.2357E-02  0.2038E+01
    138.229  0.6166E-02  0.2044E+01
    139.290  0.1886E-01  0.2090E+01
    140.350  0.2802E-01  0.2120E+01
    141.411  0.1296E-01  0.2136E+01
    142.472  0.1654E-01  0.2154E+01
    143.532  0.5611E-05  0.2161E+01
    144.593  0.1392E-01  0.2186E+01
    145.654  0.1868E-01  0.2210E+01
    146.714  0.1896E-01  0.2231E+01
    147.775  0.2471E-01  0.2261E+01
    148.836  0.3130E-04  0.2266E+01
    149.897  0.2592E-01  0.2301E+01
    150.957  0.2357E-02  0.2319E+01
    152.018  0.1532E-01  0.2335E+01
    153.079  0.1884E-01  0.2359E+01
    154.139  0.3031E-01  0.2405E+01
    155.200  0.2357E-01  0.2430E+01
    156.261  0.4133E-02  0.2434E+01
    157.321  0.2357E-02  0.2448E+01
    158.382  0.1186E-01  0.2460E+01
    159.443  0.2572E-01  0.2502E+01
    160.504  0.4635E-01  0.2558E+01
    161.564  0.2591E-01  0.2601E+01
    162.625  0.7064E-14  0.2604E+01
    163.686  0.3743E-01  0.2643E+01
    164.746  0.1223E-01  0.2657E+01
    165.807  0.1886E-01  0.2677E+01
    166.868  0.1977E-02  0.2680E+01
    167.928  0.9431E-02  0.2690E+01
    168.989  0.2194E-02  0.2695E+01
    170.050  0.2357E-01  0.2720E+01
    171.111  0.1689E-01  0.2738E+01
    172.171  0.9439E-02  0.2765E+01
    173.232  0.3172E-01  0.2804E+01
    174.293  0.1111E-02  0.2807E+01
    175.353  0.2113E-01  0.2831E+01
    176.414  0.1617E-01  0.2848E+01
    177.475  0.1498E-01  0.2885E+01
    178.535  0.3129E-01  0.2926E+01
    179.596  0.1732E-01  0.2952E+01
    180.657  0.1151E-01  0.2968E+01
    181.718  0.1886E-01  0.2994E+01
    182.778  0.1360E-01  0.3012E+01
    183.839  0.3057E-01  0.3045E+01
    184.900  0.1162E-01  0.3057E+01
    185.960  0.2756E-01  0.3090E+01
    187.021  0.1778E-01  0.3134E+01
    188.082  0.3655E-02  0.3146E+01
    189.142  0.1912E-01  0.3170E+01
    190.203  0.2230E-01  0.3197E+01
    191.264  0.2358E-02  0.3201E+01
    192.325  0.2357E-01  0.3226E+01
    193.385  0.1058E-01  0.3237E+01
    194.446  0.9425E-02  0.3264E+01
    195.507  0.3782E-01  0.3329E+01
    196.567  0.1937E-04  0.3334E+01
    197.628  0.4068E-01  0.3382E+01
    198.689  0.1611E-01  0.3412E+01
    199.749  0.8947E-02  0.3444E+01
    200.810  0.1949E-01  0.3471E+01
    201.871  0.5291E-02  0.3482E+01
    202.932  0.1402E-01  0.3501E+01
    203.992  0.8258E-02  0.3514E+01
    205.053  0.2702E-01  0.3550E+01
    206.114  0.2740E-01  0.3598E+01
    207.174  0.3345E-03  0.3604E+01
    208.235  0.2667E-05  0.3606E+01
    209.296  0.6269E-02  0.3614E+01
    210.356  0.2357E-01  0.3655E+01
    211.417  0.3380E-01  0.3693E+01
    212.478  0.4731E-02  0.3699E+01
    213.539  0.2844E-01  0.3731E+01
    214.599  0.1152E-01  0.3753E+01
    215.660  0.1417E-01  0.3770E+01
    216.721  0.7347E-02  0.3787E+01
    217.781  0.3369E-01  0.3826E+01
    218.842  0.2434E-01  0.3865E+01
    219.903  0.2099E-01  0.3897E+01
    220.963  0.1273E-01  0.3916E+01
    222.024  0.2937E-01  0.3949E+01
    223.085  0.4124E-01  0.3992E+01
    224.146  0.2304E-01  0.4017E+01
    225.206  0.3308E-01  0.4053E+01
    226.267  0.1414E-01  0.4091E+01
    227.328  0.3437E-01  0.4128E+01
    228.388  0.2957E-01  0.4163E+01
    229.449  0.2828E-01  0.4194E+01
    230.510  0.7827E-02  0.4202E+01
    231.570  0.3276E-01  0.4240E+01
    232.631  0.4852E-02  0.4245E+01
    233.692  0.3087E-01  0.4285E+01
    234.753  0.4134E-05  0.4288E+01
    235.813  0.1414E-01  0.4305E+01
    236.874  0.5937E-02  0.4311E+01
    237.935  0.2555E-01  0.4342E+01
    238.995  0.2903E-01  0.4380E+01
    240.056  0.2337E-01  0.4406E+01
    241.117  0.2465E-01  0.4437E+01
    242.177  0.3689E-01  0.4480E+01
    243.238  0.3456E-01  0.4518E+01
    244.299  0.1000E-01  0.4529E+01
    245.360  0.2828E-01  0.4564E+01
    246.420  0.1414E-01  0.4579E+01
    247.481  0.1288E-01  0.4592E+01
    248.542  0.4696E-01  0.4642E+01
    249.602  0.1518E-01  0.4659E+01
    250.663  0.2077E-01  0.4682E+01
    251.724  0.2270E-01  0.4717E+01
    252.784  0.2383E-01  0.4743E+01
    253.845  0.4340E-02  0.4757E+01
    254.906  0.4439E-02  0.4775E+01
    255.967  0.3153E-01  0.4812E+01
    257.027  0.1414E-01  0.4847E+01
    258.088  0.1210E-01  0.4860E+01
    259.149  0.3493E-02  0.4871E+01
    260.209  0.2176E-01  0.4894E+01
    261.270  0.2826E-01  0.4929E+01
    262.331  0.1965E-01  0.4950E+01
    263.391  0.1690E-01  0.4977E+01
    264.452  0.4242E-01  0.5034E+01
    265.513  0.1416E-01  0.5049E+01
    266.574  0.3535E-02  0.5056E+01
    267.634  0.2453E-01  0.5082E+01
    268.695  0.1403E-09  0.5086E+01
    269.756  0.8343E-02  0.5095E+01
    270.816  0.2357E-02  0.5100E+01
    271.877  0.4714E-02  0.5105E+01
    272.938  0.3950E-02  0.5109E+01
    273.998  0.0000E+00  0.5112E+01
    275.059  0.0000E+00  0.5112E+01
    276.120  0.1734E-09  0.5113E+01
    277.181  0.7071E-02  0.5120E+01
    278.241  0.0000E+00  0.5120E+01
    279.302  0.0000E+00  0.5120E+01
    280.363  0.0000E+00  0.5120E+01
    281.423  0.0000E+00  0.5120E+01
    282.484  0.0000E+00  0.5120E+01
    283.545  0.0000E+00  0.5120E+01
    284.605  0.0000E+00  0.5120E+01
    285.666  0.0000E+00  0.5120E+01
    286.727  0.0000E+00  0.5120E+01
    287.787  0.0000E+00  0.5120E+01
    288.848  0.0000E+00  0.5120E+01
    289.909  0.0000E+00  0.5120E+01
    290.970  0.0000E+00  0.5120E+01
