    2    2   50    1
  0.5959285E+01  0.2563971E-09  0.2563971E-09  0.2563971E-09  0.1000000E-15
  1.000000000000000E-004
  CAR 
 unknown system                          
      8      8    128
 
  0.0000000E+00  0.0000000E+00  0.0000000E+00  0.3125000E-01
    1      -12.776154   1.000000
    2        7.279085   1.000000
    3        7.279085   1.000000
    4        7.279085   1.000000
    5       15.911336   0.000000
    6       15.911336   0.000000
    7       15.911336   0.000000
    8       17.281086   0.000000
    9       31.564386   0.000000
   10       34.710499   0.000000
   11       34.710499   0.000000
   12       35.305488   0.000000
   13       35.305488   0.000000
   14       35.305488   0.000000
   15       42.434644   0.000000
   16       53.619375   0.000000
   17       53.619375   0.000000
   18       53.619375   0.000000
   19       74.327453   0.000000
   20       74.327453   0.000000
   21       74.327453   0.000000
   22       78.401383   0.000000
   23       78.401383   0.000000
   24       80.562083   0.000000
   25       80.562084   0.000000
   26       80.562084   0.000000
   27       85.559389   0.000000
   28       85.559389   0.000000
   29       85.559390   0.000000
   30       91.741106   0.000000
   31      104.854780   0.000000
   32      104.854780   0.000000
   33      104.854780   0.000000
   34      109.178554   0.000000
   35      109.178554   0.000000
   36      110.179160   0.000000
   37      110.179160   0.000000
   38      110.179160   0.000000
   39      112.258868   0.000000
   40      112.258868   0.000000
   41      114.144058   0.000000
   42      114.144058   0.000000
   43      114.144058   0.000000
   44      115.062262   0.000000
   45      115.062263   0.000000
   46      115.062263   0.000000
   47      115.820026   0.000000
   48      116.212870   0.000000
   49      116.212870   0.000000
   50      116.212870   0.000000
   51      123.549848   0.000000
   52      125.454643   0.000000
   53      125.454643   0.000000
   54      125.454644   0.000000
   55      126.107036   0.000000
   56      126.107036   0.000000
   57      126.107036   0.000000
   58      129.972761   0.000000
   59      141.174179   0.000000
   60      164.087312   0.000000
   61      164.087312   0.000000
   62      164.087312   0.000000
   63      168.884263   0.000000
   64      168.884263   0.000000
   65      175.245851   0.000000
   66      177.496647   0.000000
   67      177.496647   0.000000
   68      177.496647   0.000000
   69      187.579429   0.000000
   70      187.579430   0.000000
   71      187.579430   0.000000
   72      196.842377   0.000000
   73      196.842379   0.000000
   74      196.842379   0.000000
   75      197.541839   0.000000
   76      197.541839   0.000000
   77      197.975631   0.000000
   78      197.975631   0.000000
   79      197.975632   0.000000
   80      202.510280   0.000000
   81      202.510280   0.000000
   82      202.510282   0.000000
   83      203.406182   0.000000
   84      203.406185   0.000000
   85      203.406185   0.000000
   86      204.224224   0.000000
   87      204.224224   0.000000
   88      208.435786   0.000000
   89      211.329186   0.000000
   90      211.329186   0.000000
   91      211.329187   0.000000
   92      212.785046   0.000000
   93      212.785046   0.000000
   94      214.797066   0.000000
   95      215.880042   0.000000
   96      215.880042   0.000000
   97      215.880042   0.000000
   98      216.820832   0.000000
   99      216.820833   0.000000
  100      216.820833   0.000000
  101      217.291224   0.000000
  102      217.291226   0.000000
  103      217.291226   0.000000
  104      218.375038   0.000000
  105      218.375038   0.000000
  106      218.375038   0.000000
  107      219.578115   0.000000
  108      219.947663   0.000000
  109      219.947667   0.000000
  110      219.947667   0.000000
  111      220.062292   0.000000
  112      220.062292   0.000000
  113      237.723113   0.000000
  114      247.334436   0.000000
  115      247.334436   0.000000
  116      247.334436   0.000000
  117      254.355760   0.000000
  118      255.285837   0.000000
  119      255.285838   0.000000
  120      255.285838   0.000000
  121      258.988775   0.000000
  122      258.988776   0.000000
  123      258.988787   0.000000
  124      260.113440   0.000000
  125      260.115188   0.000000
  126      260.136057   0.000000
  127      260.340776   0.000000
  128      260.348219   0.000000
 
  0.2500000E+00  0.4036511E-17 -0.4481722E-16  0.1250000E+00
    1      -11.317969   1.000000
    2        1.841863   1.000000
    3        6.161351   1.000000
    4        6.161351   1.000000
    5       16.653436   0.000000
    6       17.415536   0.000000
    7       17.415537   0.000000
    8       20.568383   0.000000
    9       30.386844   0.000000
   10       30.594941   0.000000
   11       30.594941   0.000000
   12       34.651538   0.000000
   13       45.955498   0.000000
   14       45.955498   0.000000
   15       50.145286   0.000000
   16       50.145287   0.000000
   17       50.444912   0.000000
   18       51.835444   0.000000
   19       65.483324   0.000000
   20       65.483324   0.000000
   21       75.083108   0.000000
   22       76.738224   0.000000
   23       76.738225   0.000000
   24       81.452269   0.000000
   25       81.452270   0.000000
   26       82.455551   0.000000
   27       83.314256   0.000000
   28       87.729762   0.000000
   29       88.797974   0.000000
   30       88.797974   0.000000
   31       96.926313   0.000000
   32       97.992959   0.000000
   33       97.992960   0.000000
   34      100.553981   0.000000
   35      100.553981   0.000000
   36      101.073061   0.000000
   37      104.153088   0.000000
   38      104.153088   0.000000
   39      105.254780   0.000000
   40      111.795956   0.000000
   41      111.795956   0.000000
   42      112.359542   0.000000
   43      114.457510   0.000000
   44      120.883949   0.000000
   45      120.883949   0.000000
   46      123.249733   0.000000
   47      123.686667   0.000000
   48      123.686667   0.000000
   49      131.025764   0.000000
   50      131.025764   0.000000
   51      131.349964   0.000000
   52      133.985949   0.000000
   53      134.681821   0.000000
   54      139.608340   0.000000
   55      139.608340   0.000000
   56      140.307740   0.000000
   57      143.761561   0.000000
   58      143.761561   0.000000
   59      146.675278   0.000000
   60      146.675278   0.000000
   61      152.586737   0.000000
   62      159.943563   0.000000
   63      159.943564   0.000000
   64      160.090435   0.000000
   65      161.550544   0.000000
   66      167.647455   0.000000
   67      167.647455   0.000000
   68      176.015906   0.000000
   69      179.363234   0.000000
   70      179.363235   0.000000
   71      184.695825   0.000000
   72      185.342175   0.000000
   73      186.051933   0.000000
   74      186.051933   0.000000
   75      186.625926   0.000000
   76      186.625927   0.000000
   77      190.125199   0.000000
   78      190.125199   0.000000
   79      194.404677   0.000000
   80      194.586332   0.000000
   81      194.586333   0.000000
   82      195.505049   0.000000
   83      198.718626   0.000000
   84      198.718628   0.000000
   85      201.953066   0.000000
   86      205.981677   0.000000
   87      205.981681   0.000000
   88      206.032246   0.000000
   89      206.349146   0.000000
   90      209.316560   0.000000
   91      210.005797   0.000000
   92      210.005798   0.000000
   93      213.566911   0.000000
   94      213.566912   0.000000
   95      213.867935   0.000000
   96      217.085334   0.000000
   97      217.085334   0.000000
   98      217.236046   0.000000
   99      225.247571   0.000000
  100      225.247572   0.000000
  101      228.037381   0.000000
  102      228.668578   0.000000
  103      228.668579   0.000000
  104      230.832941   0.000000
  105      231.063930   0.000000
  106      231.063933   0.000000
  107      231.141595   0.000000
  108      233.363056   0.000000
  109      233.363057   0.000000
  110      237.522398   0.000000
  111      239.736488   0.000000
  112      239.829584   0.000000
  113      239.829586   0.000000
  114      241.453963   0.000000
  115      241.453963   0.000000
  116      244.874899   0.000000
  117      247.907735   0.000000
  118      250.641983   0.000000
  119      250.641984   0.000000
  120      253.007810   0.000000
  121      254.088591   0.000000
  122      255.321188   0.000000
  123      255.321188   0.000000
  124      256.057753   0.000000
  125      256.057753   0.000000
  126      257.847394   0.000000
  127      258.125111   0.000000
  128      258.125112   0.000000
 
  0.5000000E+00  0.8073021E-17 -0.8963444E-16  0.1250000E+00
    1       -8.631942   1.000000
    2       -3.294329   1.000000
    3        5.357685   1.000000
    4        5.357685   1.000000
    5       17.106622   0.000000
    6       17.792599   0.000000
    7       17.792600   0.000000
    8       22.307187   0.000000
    9       30.384626   0.000000
   10       33.574081   0.000000
   11       33.810296   0.000000
   12       33.810296   0.000000
   13       41.880908   0.000000
   14       41.880908   0.000000
   15       52.821013   0.000000
   16       58.917387   0.000000
   17       58.917387   0.000000
   18       63.629397   0.000000
   19       64.431375   0.000000
   20       64.431375   0.000000
   21       66.912177   0.000000
   22       66.912178   0.000000
   23       69.558365   0.000000
   24       71.493701   0.000000
   25       79.922924   0.000000
   26       79.922925   0.000000
   27       82.634190   0.000000
   28       82.634191   0.000000
   29       85.994139   0.000000
   30       86.948759   0.000000
   31       91.062761   0.000000
   32       91.062761   0.000000
   33       93.306973   0.000000
   34       94.518446   0.000000
   35      102.061178   0.000000
   36      102.061178   0.000000
   37      107.276544   0.000000
   38      109.290632   0.000000
   39      109.290632   0.000000
   40      110.749048   0.000000
   41      117.050371   0.000000
   42      120.158947   0.000000
   43      126.398352   0.000000
   44      126.398353   0.000000
   45      128.818681   0.000000
   46      128.818683   0.000000
   47      131.521917   0.000000
   48      131.521918   0.000000
   49      132.505442   0.000000
   50      132.505443   0.000000
   51      133.831031   0.000000
   52      138.188694   0.000000
   53      140.274069   0.000000
   54      140.274070   0.000000
   55      144.592968   0.000000
   56      146.612229   0.000000
   57      146.612231   0.000000
   58      153.486067   0.000000
   59      153.486068   0.000000
   60      153.978139   0.000000
   61      153.978139   0.000000
   62      157.817836   0.000000
   63      158.166293   0.000000
   64      158.857054   0.000000
   65      160.280326   0.000000
   66      160.280326   0.000000
   67      161.339497   0.000000
   68      161.440717   0.000000
   69      161.440718   0.000000
   70      163.575795   0.000000
   71      169.699534   0.000000
   72      177.397753   0.000000
   73      177.397753   0.000000
   74      178.063817   0.000000
   75      178.513700   0.000000
   76      178.513701   0.000000
   77      183.667646   0.000000
   78      183.667647   0.000000
   79      191.533504   0.000000
   80      191.533506   0.000000
   81      194.151272   0.000000
   82      197.697204   0.000000
   83      197.697206   0.000000
   84      199.260295   0.000000
   85      199.947061   0.000000
   86      204.200468   0.000000
   87      204.777404   0.000000
   88      204.777408   0.000000
   89      205.274978   0.000000
   90      210.966187   0.000000
   91      213.207227   0.000000
   92      213.207228   0.000000
   93      215.841871   0.000000
   94      220.276000   0.000000
   95      220.276002   0.000000
   96      221.622010   0.000000
   97      221.622011   0.000000
   98      221.878957   0.000000
   99      222.360320   0.000000
  100      222.461227   0.000000
  101      222.461229   0.000000
  102      223.985819   0.000000
  103      223.985819   0.000000
  104      224.645861   0.000000
  105      224.785405   0.000000
  106      225.288985   0.000000
  107      225.288989   0.000000
  108      236.401722   0.000000
  109      241.641022   0.000000
  110      241.641024   0.000000
  111      242.645932   0.000000
  112      244.995475   0.000000
  113      244.995476   0.000000
  114      247.985460   0.000000
  115      247.985460   0.000000
  116      248.060295   0.000000
  117      248.250593   0.000000
  118      248.328322   0.000000
  119      248.328326   0.000000
  120      251.557797   0.000000
  121      259.461641   0.000000
  122      260.138342   0.000000
  123      260.138342   0.000000
  124      262.187568   0.000000
  125      263.434673   0.000000
  126      263.434682   0.000000
  127      264.216800   0.000000
  128      264.222672   0.000000
 
  0.2500000E+00  0.2500000E+00  0.5115925E-17  0.6250000E-01
    1      -10.839971   1.000000
    2        3.304189   1.000000
    3        4.302596   1.000000
    4        4.302596   1.000000
    5       13.910067   0.000000
    6       18.576464   0.000000
    7       20.465209   0.000000
    8       20.465209   0.000000
    9       25.270836   0.000000
   10       33.924955   0.000000
   11       37.520298   0.000000
   12       40.256757   0.000000
   13       40.256757   0.000000
   14       42.890446   0.000000
   15       48.264895   0.000000
   16       48.264895   0.000000
   17       52.163926   0.000000
   18       58.212006   0.000000
   19       59.965890   0.000000
   20       70.061231   0.000000
   21       70.061232   0.000000
   22       75.552227   0.000000
   23       76.071251   0.000000
   24       76.071251   0.000000
   25       77.432570   0.000000
   26       79.331838   0.000000
   27       85.695220   0.000000
   28       89.083584   0.000000
   29       89.083585   0.000000
   30       96.395373   0.000000
   31       97.777767   0.000000
   32       97.777767   0.000000
   33       99.005671   0.000000
   34      100.573859   0.000000
   35      101.704083   0.000000
   36      104.427570   0.000000
   37      104.427570   0.000000
   38      104.672362   0.000000
   39      106.593678   0.000000
   40      108.972611   0.000000
   41      108.972611   0.000000
   42      109.799468   0.000000
   43      114.375941   0.000000
   44      117.565705   0.000000
   45      117.565705   0.000000
   46      123.423519   0.000000
   47      126.953727   0.000000
   48      127.074335   0.000000
   49      127.074336   0.000000
   50      127.127225   0.000000
   51      128.691883   0.000000
   52      133.432623   0.000000
   53      136.631110   0.000000
   54      144.069710   0.000000
   55      144.551085   0.000000
   56      144.551085   0.000000
   57      150.420930   0.000000
   58      153.837470   0.000000
   59      154.020431   0.000000
   60      154.020431   0.000000
   61      154.733995   0.000000
   62      154.733995   0.000000
   63      164.674655   0.000000
   64      164.674655   0.000000
   65      165.314282   0.000000
   66      166.797766   0.000000
   67      170.695586   0.000000
   68      171.237121   0.000000
   69      172.361669   0.000000
   70      172.361669   0.000000
   71      173.490704   0.000000
   72      174.819384   0.000000
   73      176.881609   0.000000
   74      176.881609   0.000000
   75      179.581127   0.000000
   76      181.122737   0.000000
   77      186.257284   0.000000
   78      186.257286   0.000000
   79      191.985259   0.000000
   80      193.384199   0.000000
   81      193.384200   0.000000
   82      194.623735   0.000000
   83      195.563813   0.000000
   84      197.821986   0.000000
   85      202.652185   0.000000
   86      202.652186   0.000000
   87      207.250129   0.000000
   88      212.919846   0.000000
   89      214.472617   0.000000
   90      214.472617   0.000000
   91      216.012495   0.000000
   92      217.488658   0.000000
   93      217.488658   0.000000
   94      217.649657   0.000000
   95      217.919412   0.000000
   96      218.620177   0.000000
   97      220.308317   0.000000
   98      222.430357   0.000000
   99      222.430358   0.000000
  100      222.889351   0.000000
  101      225.498804   0.000000
  102      228.778219   0.000000
  103      228.778221   0.000000
  104      230.284362   0.000000
  105      231.471612   0.000000
  106      233.683267   0.000000
  107      233.683268   0.000000
  108      234.958954   0.000000
  109      237.565597   0.000000
  110      237.832485   0.000000
  111      238.280588   0.000000
  112      238.280589   0.000000
  113      240.172428   0.000000
  114      240.554186   0.000000
  115      240.554186   0.000000
  116      241.125162   0.000000
  117      241.290591   0.000000
  118      242.586211   0.000000
  119      242.586212   0.000000
  120      244.384870   0.000000
  121      245.866540   0.000000
  122      245.868261   0.000000
  123      245.868261   0.000000
  124      247.044547   0.000000
  125      251.696570   0.000000
  126      259.576319   0.000000
  127      262.778870   0.000000
  128      262.778871   0.000000
 
  0.5000000E+00  0.2500000E+00 -0.5439457E-16  0.3750000E+00
    1       -8.192792   1.000000
    2       -1.384323   1.000000
    3        2.170010   1.000000
    4        3.666266   1.000000
    5       14.674101   0.000000
    6       20.131841   0.000000
    7       21.474868   0.000000
    8       21.556606   0.000000
    9       26.907743   0.000000
   10       33.268135   0.000000
   11       35.522611   0.000000
   12       39.029102   0.000000
   13       43.793060   0.000000
   14       48.303592   0.000000
   15       51.363813   0.000000
   16       53.034254   0.000000
   17       57.947065   0.000000
   18       58.074752   0.000000
   19       59.384194   0.000000
   20       64.446146   0.000000
   21       66.428102   0.000000
   22       68.018887   0.000000
   23       70.920429   0.000000
   24       73.180367   0.000000
   25       75.167304   0.000000
   26       79.391805   0.000000
   27       81.014845   0.000000
   28       83.329559   0.000000
   29       85.800054   0.000000
   30       86.545402   0.000000
   31       91.973069   0.000000
   32       95.279642   0.000000
   33       97.365895   0.000000
   34       97.524939   0.000000
   35      101.437239   0.000000
   36      104.552958   0.000000
   37      105.980128   0.000000
   38      112.295369   0.000000
   39      113.152019   0.000000
   40      114.466331   0.000000
   41      115.229067   0.000000
   42      117.070482   0.000000
   43      120.582798   0.000000
   44      120.701893   0.000000
   45      124.512920   0.000000
   46      125.684899   0.000000
   47      127.947085   0.000000
   48      130.228253   0.000000
   49      131.260125   0.000000
   50      131.845036   0.000000
   51      138.453978   0.000000
   52      138.949523   0.000000
   53      142.402535   0.000000
   54      145.324788   0.000000
   55      147.609747   0.000000
   56      149.417654   0.000000
   57      150.116924   0.000000
   58      151.740645   0.000000
   59      153.176788   0.000000
   60      154.565366   0.000000
   61      156.299431   0.000000
   62      158.560072   0.000000
   63      159.020672   0.000000
   64      160.238813   0.000000
   65      160.545162   0.000000
   66      163.129177   0.000000
   67      163.375280   0.000000
   68      165.447440   0.000000
   69      169.703116   0.000000
   70      170.763365   0.000000
   71      171.253461   0.000000
   72      172.621775   0.000000
   73      174.925819   0.000000
   74      176.639501   0.000000
   75      178.407301   0.000000
   76      181.138077   0.000000
   77      183.077554   0.000000
   78      185.551997   0.000000
   79      186.206950   0.000000
   80      188.859529   0.000000
   81      189.882321   0.000000
   82      193.484826   0.000000
   83      194.950541   0.000000
   84      195.373693   0.000000
   85      197.030082   0.000000
   86      197.392005   0.000000
   87      198.726852   0.000000
   88      200.448665   0.000000
   89      204.751137   0.000000
   90      205.153761   0.000000
   91      205.543581   0.000000
   92      209.369462   0.000000
   93      210.983345   0.000000
   94      213.483579   0.000000
   95      215.264791   0.000000
   96      217.818244   0.000000
   97      218.043050   0.000000
   98      218.878115   0.000000
   99      219.552079   0.000000
  100      222.285658   0.000000
  101      224.012017   0.000000
  102      224.960892   0.000000
  103      227.143419   0.000000
  104      227.804582   0.000000
  105      228.842979   0.000000
  106      232.905146   0.000000
  107      235.383268   0.000000
  108      237.467783   0.000000
  109      238.198937   0.000000
  110      240.439182   0.000000
  111      242.066390   0.000000
  112      243.018287   0.000000
  113      244.876213   0.000000
  114      248.381691   0.000000
  115      249.385515   0.000000
  116      250.133717   0.000000
  117      250.998405   0.000000
  118      252.325571   0.000000
  119      252.750374   0.000000
  120      255.949451   0.000000
  121      256.685226   0.000000
  122      260.950102   0.000000
  123      261.064944   0.000000
  124      262.287411   0.000000
  125      263.781122   0.000000
  126      263.825790   0.000000
  127      265.148854   0.000000
  128      267.253643   0.000000
 
 -0.2500000E+00  0.2500000E+00  0.9133975E-16  0.1250000E+00
    1       -9.172876   1.000000
    2       -0.231908   1.000000
    3        1.737071   1.000000
    4        5.207195   1.000000
    5       16.814245   0.000000
    6       19.215188   0.000000
    7       19.879604   0.000000
    8       21.484928   0.000000
    9       28.442665   0.000000
   10       29.069471   0.000000
   11       33.583508   0.000000
   12       40.675800   0.000000
   13       43.790361   0.000000
   14       48.794736   0.000000
   15       48.855265   0.000000
   16       50.196576   0.000000
   17       58.529050   0.000000
   18       60.178547   0.000000
   19       61.800291   0.000000
   20       63.837366   0.000000
   21       67.099756   0.000000
   22       70.347055   0.000000
   23       73.264810   0.000000
   24       73.750340   0.000000
   25       75.120668   0.000000
   26       77.982710   0.000000
   27       83.986564   0.000000
   28       85.292785   0.000000
   29       86.010139   0.000000
   30       88.862382   0.000000
   31       93.978268   0.000000
   32       95.026032   0.000000
   33       95.922629   0.000000
   34       98.075976   0.000000
   35       98.829644   0.000000
   36      103.086818   0.000000
   37      105.575900   0.000000
   38      106.738905   0.000000
   39      107.770752   0.000000
   40      113.785805   0.000000
   41      117.697157   0.000000
   42      118.635309   0.000000
   43      120.827575   0.000000
   44      123.366582   0.000000
   45      125.265222   0.000000
   46      126.779464   0.000000
   47      127.736324   0.000000
   48      130.132123   0.000000
   49      132.416532   0.000000
   50      134.022078   0.000000
   51      136.238802   0.000000
   52      138.775245   0.000000
   53      139.551191   0.000000
   54      140.837478   0.000000
   55      142.120586   0.000000
   56      142.714788   0.000000
   57      147.912942   0.000000
   58      149.651291   0.000000
   59      152.065462   0.000000
   60      152.832788   0.000000
   61      154.784323   0.000000
   62      159.513175   0.000000
   63      160.299779   0.000000
   64      160.703123   0.000000
   65      161.088699   0.000000
   66      163.443210   0.000000
   67      164.525106   0.000000
   68      169.622003   0.000000
   69      171.741682   0.000000
   70      171.957797   0.000000
   71      172.450462   0.000000
   72      175.947010   0.000000
   73      176.420735   0.000000
   74      177.542465   0.000000
   75      180.543425   0.000000
   76      182.679139   0.000000
   77      184.927631   0.000000
   78      185.165643   0.000000
   79      187.254894   0.000000
   80      189.178075   0.000000
   81      191.929846   0.000000
   82      192.713842   0.000000
   83      194.498485   0.000000
   84      196.754455   0.000000
   85      197.303085   0.000000
   86      198.880619   0.000000
   87      199.660643   0.000000
   88      200.674320   0.000000
   89      202.985108   0.000000
   90      203.256211   0.000000
   91      209.626983   0.000000
   92      210.075646   0.000000
   93      211.987482   0.000000
   94      216.222399   0.000000
   95      217.584024   0.000000
   96      219.341368   0.000000
   97      221.704265   0.000000
   98      224.617492   0.000000
   99      225.303137   0.000000
  100      225.923705   0.000000
  101      227.219133   0.000000
  102      230.075463   0.000000
  103      231.135096   0.000000
  104      231.402189   0.000000
  105      232.335702   0.000000
  106      232.792288   0.000000
  107      233.329491   0.000000
  108      236.919518   0.000000
  109      238.638074   0.000000
  110      240.067707   0.000000
  111      240.850133   0.000000
  112      241.764185   0.000000
  113      243.160626   0.000000
  114      243.544397   0.000000
  115      243.906971   0.000000
  116      246.085307   0.000000
  117      247.283248   0.000000
  118      250.730039   0.000000
  119      253.888150   0.000000
  120      253.899897   0.000000
  121      254.967466   0.000000
  122      255.350513   0.000000
  123      255.849699   0.000000
  124      256.150689   0.000000
  125      257.956759   0.000000
  126      261.927092   0.000000
  127      262.586987   0.000000
  128      263.383544   0.000000
 
  0.5000000E+00  0.5000000E+00  0.1023185E-16  0.9375000E-01
    1       -7.284913   1.000000
    2       -1.563213   1.000000
    3        2.434234   1.000000
    4        2.434235   1.000000
    5       11.634578   0.000000
    6       16.307269   0.000000
    7       24.858394   0.000000
    8       24.858394   0.000000
    9       27.727598   0.000000
   10       34.005794   0.000000
   11       40.476082   0.000000
   12       40.476082   0.000000
   13       45.563632   0.000000
   14       46.344281   0.000000
   15       53.910410   0.000000
   16       55.708857   0.000000
   17       55.708857   0.000000
   18       56.636644   0.000000
   19       57.008738   0.000000
   20       57.008738   0.000000
   21       57.490378   0.000000
   22       64.117467   0.000000
   23       73.873679   0.000000
   24       73.873680   0.000000
   25       79.710476   0.000000
   26       79.710476   0.000000
   27       82.553822   0.000000
   28       83.731551   0.000000
   29       87.688718   0.000000
   30       89.651765   0.000000
   31       94.168165   0.000000
   32       99.763062   0.000000
   33      100.285462   0.000000
   34      100.449776   0.000000
   35      100.449776   0.000000
   36      102.379937   0.000000
   37      102.853436   0.000000
   38      102.853436   0.000000
   39      104.605789   0.000000
   40      105.979503   0.000000
   41      116.914231   0.000000
   42      119.294077   0.000000
   43      121.917051   0.000000
   44      121.917051   0.000000
   45      127.625481   0.000000
   46      127.625481   0.000000
   47      133.857365   0.000000
   48      134.421647   0.000000
   49      138.341455   0.000000
   50      138.341455   0.000000
   51      141.047603   0.000000
   52      141.047604   0.000000
   53      144.458548   0.000000
   54      144.871439   0.000000
   55      146.209919   0.000000
   56      147.356255   0.000000
   57      147.577137   0.000000
   58      147.577137   0.000000
   59      149.020966   0.000000
   60      149.020966   0.000000
   61      149.568080   0.000000
   62      149.714420   0.000000
   63      152.880041   0.000000
   64      158.847172   0.000000
   65      172.634082   0.000000
   66      172.702435   0.000000
   67      172.702436   0.000000
   68      175.148213   0.000000
   69      176.388014   0.000000
   70      176.388014   0.000000
   71      177.823894   0.000000
   72      177.823895   0.000000
   73      178.742879   0.000000
   74      179.187663   0.000000
   75      179.661119   0.000000
   76      180.469424   0.000000
   77      180.469424   0.000000
   78      181.959784   0.000000
   79      184.793914   0.000000
   80      185.881090   0.000000
   81      187.018410   0.000000
   82      187.018413   0.000000
   83      188.211045   0.000000
   84      188.610990   0.000000
   85      191.550165   0.000000
   86      192.070351   0.000000
   87      194.696845   0.000000
   88      194.696846   0.000000
   89      194.919572   0.000000
   90      194.919573   0.000000
   91      197.911072   0.000000
   92      200.886635   0.000000
   93      210.775814   0.000000
   94      210.775817   0.000000
   95      221.309567   0.000000
   96      221.402992   0.000000
   97      221.402993   0.000000
   98      222.671050   0.000000
   99      225.271732   0.000000
  100      225.613233   0.000000
  101      225.613233   0.000000
  102      226.701177   0.000000
  103      226.955083   0.000000
  104      226.955083   0.000000
  105      227.399018   0.000000
  106      227.711649   0.000000
  107      228.328531   0.000000
  108      230.565711   0.000000
  109      238.011791   0.000000
  110      238.011792   0.000000
  111      238.582159   0.000000
  112      238.987539   0.000000
  113      239.401140   0.000000
  114      239.401141   0.000000
  115      242.619559   0.000000
  116      243.113983   0.000000
  117      259.464298   0.000000
  118      262.871383   0.000000
  119      262.871384   0.000000
  120      265.688981   0.000000
  121      266.123269   0.000000