<?xml version="1.0" encoding="ISO-8859-1"?>
<modeling>
 <generator>
  <i name="program" type="string">vasp </i>
  <i name="version" type="string">6.2.1  </i>
  <i name="subversion" type="string">16May21 (build Oct 21 2023 21:03:18) complex                          parallel </i>
  <i name="platform" type="string">LinuxIFC </i>
  <i name="date" type="string">2023 12 15 </i>
  <i name="time" type="string">15:54:35 </i>
 </generator>
 <incar>
  <i type="int" name="ISTART">     0</i>
  <i type="string" name="PREC">Accurate</i>
  <i type="int" name="IALGO">    48</i>
  <i type="string" name="ALGO">Normal</i>
  <i type="int" name="NSIM">     4</i>
  <i type="int" name="IBRION">     2</i>
  <i name="EDIFF">      0.00000100</i>
  <i name="EDIFFG">     -0.02000000</i>
  <i type="int" name="NSW">    50</i>
  <i type="int" name="ISIF">     3</i>
  <i type="int" name="ISYM">     2</i>
  <i name="ENCUT">    520.00000000</i>
  <i type="int" name="NBANDS">   128</i>
  <i name="POTIM">      0.10000000</i>
  <i type="logical" name="LPLANE"> T  </i>
  <i type="int" name="ISMEAR">     0</i>
  <i name="SIGMA">      0.10000000</i>
  <i name="PSTRESS">      0.00100000</i>
  <i type="logical" name="LWAVE"> F  </i>
  <i type="logical" name="LCHARG"> F  </i>
 </incar>
 <primitive_cell>
  <structure name="primitive_cell" >
   <crystal>
    <varray name="basis" >
     <v>       0.00000000       1.81300100       1.81300100 </v>
     <v>       1.81300100       0.00000000       1.81300100 </v>
     <v>       1.81300100       1.81300100       0.00000000 </v>
    </varray>
    <i name="volume">     11.91856932 </i>
    <varray name="rec_basis" >
     <v>      -0.27578584       0.27578584       0.27578584 </v>
     <v>       0.27578584      -0.27578584       0.27578584 </v>
     <v>       0.27578584       0.27578584      -0.27578584 </v>
    </varray>
   </crystal>
   <varray name="positions" >
    <v>       0.00000000       0.00000000       0.00000000 </v>
    <v>       0.75000000       0.75000000       0.75000000 </v>
   </varray>
  </structure>
  <varray name="primitive_index" >
   <v type="int" >        1 </v>
   <v type="int" >        2 </v>
  </varray>
 </primitive_cell>
 <kpoints>
  <generation param="Gamma">
   <v type="int" name="divisions">       4        4        2 </v>
   <v name="usershift">      0.00000000       0.00000000       0.00000000 </v>
   <v name="genvec1">      0.25000000       0.00000000      -0.00000000 </v>
   <v name="genvec2">      0.00000000       0.25000000       0.00000000 </v>
   <v name="genvec3">     -0.00000000      -0.00000000       0.50000000 </v>
   <v name="shift">      0.00000000       0.00000000       0.00000000 </v>
  </generation>
  <varray name="kpointlist" >
   <v>       0.00000000       0.00000000       0.00000000 </v>
   <v>       0.25000000       0.00000000      -0.00000000 </v>
   <v>       0.50000000       0.00000000      -0.00000000 </v>
   <v>       0.25000000       0.25000000       0.00000000 </v>
   <v>       0.50000000       0.25000000      -0.00000000 </v>
   <v>      -0.25000000       0.25000000       0.00000000 </v>
   <v>       0.50000000       0.50000000       0.00000000 </v>
   <v>      -0.25000000       0.25000000       0.50000000 </v>
  </varray>
  <varray name="weights" >
   <v>       0.03125000 </v>
   <v>       0.12500000 </v>
   <v>       0.12500000 </v>
   <v>       0.06250000 </v>
   <v>       0.37500000 </v>
   <v>       0.12500000 </v>
   <v>       0.09375000 </v>
   <v>       0.06250000 </v>
  </varray>
 </kpoints>
 <parameters>
  <separator name="general" >
   <i type="string" name="SYSTEM">unknown system</i>
   <i type="logical" name="LCOMPAT"> F  </i>
  </separator>
  <separator name="electronic" >
   <i type="string" name="PREC">accura</i>
   <i name="ENMAX">    520.00000000</i>
   <i name="ENAUG">    627.11200000</i>
   <i name="EDIFF">      0.00000100</i>
   <i type="int" name="IALGO">    38</i>
   <i type="int" name="IWAVPR">    11</i>
   <i type="int" name="NBANDS">   128</i>
   <i type="int" name="NBANDSLOW">    -1</i>
   <i type="int" name="NBANDSHIGH">    -1</i>
   <i name="NELECT">      8.00000000</i>
   <i type="int" name="TURBO">     0</i>
   <i type="int" name="IRESTART">     0</i>
   <i type="int" name="NREBOOT">     0</i>
   <i type="int" name="NMIN">     0</i>
   <i name="EREF">      0.00000000</i>
   <separator name="electronic smearing" >
    <i type="int" name="ISMEAR">     0</i>
    <i name="SIGMA">      0.10000000</i>
    <i name="KSPACING">      0.50000000</i>
    <i type="logical" name="KGAMMA"> T  </i>
    <i type="logical" name="KBLOWUP"> F  </i>
   </separator>
   <separator name="electronic projectors" >
    <i type="logical" name="LREAL"> F  </i>
    <v name="ROPT">      0.00000000      0.00000000</v>
    <i type="int" name="LMAXPAW">  -100</i>
    <i type="int" name="LMAXMIX">     2</i>
    <i type="logical" name="NLSPLINE"> F  </i>
   </separator>
   <separator name="electronic startup" >
    <i type="int" name="ISTART">     0</i>
    <i type="int" name="ICHARG">     2</i>
    <i type="int" name="INIWAV">     1</i>
   </separator>
   <separator name="electronic spin" >
    <i type="int" name="ISPIN">     1</i>
    <i type="logical" name="LNONCOLLINEAR"> F  </i>
    <v name="MAGMOM">      1.00000000      1.00000000</v>
    <i name="NUPDOWN">     -1.00000000</i>
    <i type="logical" name="LSORBIT"> F  </i>
    <v name="SAXIS">      0.00000000      0.00000000      1.00000000</v>
    <i type="logical" name="LSPIRAL"> F  </i>
    <v name="QSPIRAL">      0.00000000      0.00000000      0.00000000</v>
    <i type="logical" name="LZEROZ"> F  </i>
   </separator>
   <separator name="electronic exchange-correlation" >
    <i type="logical" name="LASPH"> F  </i>
    <i type="logical" name="LMETAGGA"> F  </i>
   </separator>
   <separator name="electronic convergence" >
    <i type="int" name="NELM">    60</i>
    <i type="int" name="NELMDL">    -5</i>
    <i type="int" name="NELMIN">     2</i>
    <i name="ENINI">    520.00000000</i>
    <separator name="electronic convergence detail" >
     <i type="logical" name="LDIAG"> T  </i>
     <i type="logical" name="LSUBROT"> F  </i>
     <i name="WEIMIN">      0.00100000</i>
     <i name="EBREAK">      0.00000000</i>
     <i name="DEPER">      0.30000000</i>
     <i type="int" name="NRMM">     4</i>
     <i name="TIME">      0.40000000</i>
    </separator>
   </separator>
   <separator name="electronic mixer" >
    <i name="AMIX">      0.40000000</i>
    <i name="BMIX">      1.00000000</i>
    <i name="AMIN">      0.10000000</i>
    <i name="AMIX_MAG">      1.60000000</i>
    <i name="BMIX_MAG">      1.00000000</i>
    <separator name="electronic mixer details" >
     <i type="int" name="IMIX">     4</i>
     <i type="logical" name="MIXFIRST"> F  </i>
     <i type="int" name="MAXMIX">   -45</i>
     <i name="WC">    100.00000000</i>
     <i type="int" name="INIMIX">     1</i>
     <i type="int" name="MIXPRE">     1</i>
     <i type="int" name="MREMOVE">     5</i>
    </separator>
   </separator>
   <separator name="electronic dipolcorrection" >
    <i type="logical" name="LDIPOL"> F  </i>
    <i type="logical" name="LMONO"> F  </i>
    <i type="int" name="IDIPOL">     0</i>
    <i name="EPSILON">      1.00000000</i>
    <v name="DIPOL">   -100.00000000   -100.00000000   -100.00000000</v>
    <i name="EFIELD">      0.00000000</i>
   </separator>
  </separator>
  <separator name="grids" >
   <i type="int" name="NGX">    20</i>
   <i type="int" name="NGY">    20</i>
   <i type="int" name="NGZ">    20</i>
   <i type="int" name="NGXF">    40</i>
   <i type="int" name="NGYF">    40</i>
   <i type="int" name="NGZF">    40</i>
   <i type="logical" name="ADDGRID"> F  </i>
  </separator>
  <separator name="ionic" >
   <i type="int" name="NSW">    50</i>
   <i type="int" name="IBRION">     2</i>
   <i type="int" name="MDALGO">     0</i>
   <i type="int" name="ISIF">     3</i>
   <i name="PSTRESS">      0.00100000</i>
   <i name="EDIFFG">     -0.02000000</i>
   <i type="int" name="NFREE">     1</i>
   <i name="POTIM">      0.10000000</i>
   <i name="SMASS">     -3.00000000</i>
   <i name="SCALEE">      1.00000000</i>
  </separator>
  <separator name="ionic md" >
   <i name="TEBEG">      0.00010000</i>
   <i name="TEEND">      0.00010000</i>
   <i type="int" name="NBLOCK">     1</i>
   <i type="int" name="KBLOCK">    50</i>
   <i type="int" name="NPACO">   256</i>
   <i name="APACO">     16.00000000</i>
  </separator>
  <separator name="symmetry" >
   <i type="int" name="ISYM">     2</i>
   <i name="SYMPREC">      0.00001000</i>
  </separator>
  <separator name="dos" >
   <i type="int" name="LORBIT">     0</i>
   <v name="RWIGS">     -1.00000000     -1.00000000</v>
   <i type="int" name="NEDOS">   301</i>
   <i name="EMIN">     10.00000000</i>
   <i name="EMAX">    -10.00000000</i>
   <i name="EFERMI">      0.00000000</i>
  </separator>
  <separator name="writing" >
   <i type="int" name="NWRITE">     2</i>
   <i type="logical" name="LWAVE"> F  </i>
   <i type="logical" name="LDOWNSAMPLE"> F  </i>
   <i type="logical" name="LCHARG"> F  </i>
   <i type="logical" name="LPARD"> F  </i>
   <i type="logical" name="LVTOT"> F  </i>
   <i type="logical" name="LVHAR"> F  </i>
   <i type="logical" name="LELF"> F  </i>
   <i type="logical" name="LOPTICS"> F  </i>
   <v name="STM">      0.00000000      0.00000000      0.00000000      0.00000000      0.00000000      0.00000000      0.00000000</v>
  </separator>
  <separator name="performance" >
   <i type="int" name="NPAR">     2</i>
   <i type="int" name="NSIM">     4</i>
   <i type="int" name="NBLK">    -1</i>
   <i type="logical" name="LPLANE"> T  </i>
   <i type="logical" name="LSCALAPACK"> T  </i>
   <i type="logical" name="LSCAAWARE"> F  </i>
   <i type="logical" name="LSCALU"> F  </i>
   <i type="logical" name="LASYNC"> F  </i>
   <i type="logical" name="LORBITALREAL"> F  </i>
  </separator>
  <separator name="miscellaneous" >
   <i type="int" name="IDIOT">     3</i>
   <i type="int" name="PHON_NSTRUCT">    -1</i>
   <i type="logical" name="LMUSIC"> F  </i>
   <v name="POMASS">     10.81100000     14.00100000</v>
   <v name="DARWINR">      0.00000000      0.00000000</v>
   <v name="DARWINV">      1.00000000      1.00000000</v>
   <i type="logical" name="LCORR"> T  </i>
  </separator>
  <i type="logical" name="GGA_COMPAT"> T  </i>
  <i type="logical" name="LBERRY"> F  </i>
  <i type="int" name="ICORELEVEL">     0</i>
  <i type="logical" name="LDAU"> F  </i>
  <i type="int" name="I_CONSTRAINED_M">     0</i>
  <separator name="electronic exchange-correlation" >
   <i type="string" name="GGA">--</i>
   <i type="int" name="VOSKOWN">     0</i>
   <i type="logical" name="LHFCALC"> F  </i>
   <i type="string" name="PRECFOCK"></i>
   <i type="logical" name="LSYMGRAD"> F  </i>
   <i type="logical" name="LHFONE"> F  </i>
   <i type="logical" name="LRHFCALC"> F  </i>
   <i type="logical" name="LTHOMAS"> F  </i>
   <i type="logical" name="LMODELHF"> F  </i>
   <i type="logical" name="LFOCKACE"> F  </i>
   <i name="ENCUT4O">     -1.00000000</i>
   <i type="int" name="EXXOEP">     0</i>
   <i type="int" name="FOURORBIT">     0</i>
   <i name="AEXX">      0.00000000</i>
   <i name="HFALPHA">      0.00000000</i>
   <i name="MCALPHA">      0.00000000</i>
   <i name="ALDAX">      1.00000000</i>
   <i name="AGGAX">      1.00000000</i>
   <i name="ALDAC">      1.00000000</i>
   <i name="AGGAC">      1.00000000</i>
   <i type="int" name="NKREDX">     1</i>
   <i type="int" name="NKREDY">     1</i>
   <i type="int" name="NKREDZ">     1</i>
   <i type="logical" name="SHIFTRED"> F  </i>
   <i type="logical" name="ODDONLY"> F  </i>
   <i type="logical" name="EVENONLY"> F  </i>
   <i type="int" name="LMAXFOCK">     0</i>
   <i type="int" name="NMAXFOCKAE">     0</i>
   <i type="logical" name="LFOCKAEDFT"> F  </i>
   <i name="HFSCREEN">      0.00000000</i>
   <i name="HFSCREENC">      0.00000000</i>
   <i type="int" name="NBANDSGWLOW">     0</i>
  </separator>
  <separator name="vdW DFT" >
   <i type="logical" name="LUSE_VDW"> F  </i>
   <i name="Zab_VDW">     -0.84910000</i>
   <i name="PARAM1">      0.12340000</i>
   <i name="PARAM2">      1.00000000</i>
   <i name="PARAM3">      0.00000000</i>
  </separator>
  <separator name="model GW" >
   <i type="int" name="MODEL_GW">     0</i>
   <i name="MODEL_EPS0">      3.57557079</i>
   <i name="MODEL_ALPHA">      1.00000000</i>
  </separator>
  <separator name="linear response parameters" >
   <i type="logical" name="LEPSILON"> F  </i>
   <i type="logical" name="LRPA"> F  </i>
   <i type="logical" name="LNABLA"> F  </i>
   <i type="logical" name="LVEL"> F  </i>
   <i type="int" name="KINTER">     0</i>
   <i name="CSHIFT">      0.10000000</i>
   <i name="OMEGAMAX">     -1.00000000</i>
   <i name="DEG_THRESHOLD">      0.00200000</i>
   <i name="RTIME">     -0.10000000</i>
   <i name="WPLASMAI">      0.00000000</i>
   <v name="DFIELD">      0.00000000      0.00000000      0.00000000</v>
   <v name="WPLASMA">      0.00000000      0.00000000      0.00000000      0.00000000      0.00000000      0.00000000      0.00000000      0.00000000      0.00000000</v>
  </separator>
  <separator name="orbital magnetization" >
   <i type="logical" name="NUCIND"> F  </i>
   <v name="MAGPOS">      0.00000000      0.00000000      0.00000000</v>
   <i type="logical" name="LNICSALL"> T  </i>
   <i type="logical" name="ORBITALMAG"> F  </i>
   <i type="logical" name="LMAGBLOCH"> F  </i>
   <i type="logical" name="LCHIMAG"> F  </i>
   <i type="logical" name="LGAUGE"> T  </i>
   <i type="int" name="MAGATOM">     0</i>
   <v name="MAGDIPOL">      0.00000000      0.00000000      0.00000000</v>
   <v name="AVECCONST">      0.00000000      0.00000000      0.00000000</v>
  </separator>
  <separator name="response functions" >
   <i type="logical" name="LFINITE_TEMPERATURE"> F  </i>
   <i type="logical" name="LADDER"> F  </i>
   <i type="logical" name="LRPAFORCE"> F  </i>
   <i type="logical" name="LFXC"> F  </i>
   <i type="logical" name="LHARTREE"> T  </i>
   <i type="int" name="IBSE">     0</i>
   <v type="int" name="KPOINT">    -1     0     0     0</v>
   <i type="logical" name="LTCTC"> F  </i>
   <i type="logical" name="LTCTE"> F  </i>
   <i type="logical" name="LTETE"> F  </i>
   <i type="logical" name="LTRIPLET"> F  </i>
   <i type="logical" name="LFXCEPS"> F  </i>
   <i type="logical" name="LFXHEG"> F  </i>
   <i type="int" name="NATURALO">     2</i>
   <i type="logical" name="LHOLEGF"> F  </i>
   <i type="logical" name="L2ORDER"> F  </i>
   <i type="logical" name="LDMP1"> F  </i>
   <i type="logical" name="LMP2LT"> F  </i>
   <i type="logical" name="LSMP2LT"> F  </i>
   <i type="logical" name="LGWLF"> F  </i>
   <i name="ENCUTGW">     -2.00000000</i>
   <i name="ENCUTGWSOFT">     -2.00000000</i>
   <i name="ENCUTLF">     -1.00000000</i>
   <i type="logical" name="LESF_SPLINES"> F  </i>
   <i type="int" name="LMAXMP2">    -1</i>
   <i name="SCISSOR">      0.00000000</i>
   <i type="int" name="NOMEGA">     0</i>
   <i type="int" name="NOMEGAR">     0</i>
   <i type="int" name="NBANDSGW">    -1</i>
   <i type="int" name="NBANDSO">    -1</i>
   <i type="int" name="NBANDSV">    -1</i>
   <i type="int" name="NELM">     1</i>
   <i type="int" name="NELMHF">     1</i>
   <i type="int" name="DIM">     3</i>
   <i type="int" name="IESPILON">     4</i>
   <i type="int" name="ANTIRES">     0</i>
   <i name="OMEGAMAX">    -30.00000000</i>
   <i name="OMEGAMIN">    -30.00000000</i>
   <i name="OMEGATL">   -200.00000000</i>
   <i type="int" name="OMEGAGRID">     0</i>
   <i name="CSHIFT">     -0.10000000</i>
   <i type="logical" name="LSELFENERGY"> F  </i>
   <i type="logical" name="LSPECTRAL"> F  </i>
   <i type="logical" name="LSPECTRALGW"> F  </i>
   <i type="logical" name="LSINGLES"> F  </i>
   <i type="logical" name="LFERMIGW"> F  </i>
   <i type="logical" name="ODDONLYGW"> F  </i>
   <i type="logical" name="EVENONLYGW"> F  </i>
   <i type="int" name="NKREDLFX">     1</i>
   <i type="int" name="NKREDLFY">     1</i>
   <i type="int" name="NKREDLFZ">     1</i>
   <i type="int" name="MAXMEM">  2800</i>
   <i type="int" name="TELESCOPE">     0</i>
   <i type="int" name="NTAUPAR">    -1</i>
   <i type="int" name="NOMEGAPAR">    -1</i>
   <i name="DAMP_NEWTON">      0.80000001</i>
   <i name="LAMBDA">      1.00000000</i>
  </separator>
  <separator name="External order field" >
   <i name="OFIELD_KAPPA">      0.00000000</i>
   <v name="OFIELD_K">      0.00000000      0.00000000      0.00000000</v>
   <i name="OFIELD_Q6_NEAR">      0.00000000</i>
   <i name="OFIELD_Q6_FAR">      0.00000000</i>
   <i name="OFIELD_A">      0.00000000</i>
  </separator>
 </parameters>
 <atominfo>
  <atoms>       2 </atoms>
  <types>       2 </types>
  <array name="atoms" >
   <dimension dim="1">ion</dimension>
   <field type="string">element</field>
   <field type="int">atomtype</field>
   <set>
    <rc><c>B </c><c>   1</c></rc>
    <rc><c>N </c><c>   2</c></rc>
   </set>
  </array>
  <array name="atomtypes" >
   <dimension dim="1">type</dimension>
   <field type="int">atomspertype</field>
   <field type="string">element</field>
   <field>mass</field>
   <field>valence</field>
   <field type="string">pseudopotential</field>
   <set>
    <rc><c>   1</c><c>B </c><c>     10.81100000</c><c>      3.00000000</c><c>  PAW_PBE B 06Sep2000                   </c></rc>
    <rc><c>   1</c><c>N </c><c>     14.00100000</c><c>      5.00000000</c><c>  PAW_PBE N 08Apr2002                   </c></rc>
   </set>
  </array>
 </atominfo>
 <structure name="initialpos" >
  <crystal>
   <varray name="basis" >
    <v>       0.00000000       1.81300100       1.81300100 </v>
    <v>       1.81300100       0.00000000       1.81300100 </v>
    <v>       1.81300100       1.81300100       0.00000000 </v>
   </varray>
   <i name="volume">     11.91856932 </i>
   <varray name="rec_basis" >
    <v>      -0.27578584       0.27578584       0.27578584 </v>
    <v>       0.27578584      -0.27578584       0.27578584 </v>
    <v>       0.27578584       0.27578584      -0.27578584 </v>
   </varray>
  </crystal>
  <varray name="positions" >
   <v>       0.00000000       0.00000000       0.00000000 </v>
   <v>       0.75000000       0.75000000       0.75000000 </v>
  </varray>
 </structure>
 <calculation>
  <scstep>
   <time name="dav">    0.24    0.24</time>
   <time name="total">    0.24    0.24</time>
   <energy>
    <i name="alphaZ">     29.85653316 </i>
    <i name="ewald">   -357.30075995 </i>
    <i name="hartreedc">    -38.01202139 </i>
    <i name="XCdc">     27.94546311 </i>
    <i name="pawpsdc">    248.43259712 </i>
    <i name="pawaedc">   -248.76826126 </i>
    <i name="eentropy">     -0.00482147 </i>
    <i name="bandstr">     38.40008120 </i>
    <i name="atom">    335.70528947 </i>
    <i name="e_fr_energy">     36.25410000 </i>
    <i name="e_wo_entrp">     36.25892147 </i>
    <i name="e_0_energy">     36.25651073 </i>
   </energy>
  </scstep>
  <scstep>
   <time name="dav">    0.25    0.25</time>
   <time name="total">    0.25    0.25</time>
   <energy>
    <i name="e_fr_energy">    -17.06113984 </i>
    <i name="e_wo_entrp">    -17.06113984 </i>
    <i name="e_0_energy">    -17.06113984 </i>
   </energy>
  </scstep>
  <scstep>
   <time name="dav">    0.25    0.25</time>
   <time name="total">    0.25    0.25</time>
   <energy>
    <i name="e_fr_energy">    -18.05707066 </i>
    <i name="e_wo_entrp">    -18.05707066 </i>
    <i name="e_0_energy">    -18.05707066 </i>
   </energy>
  </scstep>
  <scstep>
   <time name="dav">    0.25    0.25</time>
   <time name="total">    0.25    0.25</time>
   <energy>
    <i name="e_fr_energy">    -18.05726006 </i>
    <i name="e_wo_entrp">    -18.05726006 </i>
    <i name="e_0_energy">    -18.05726006 </i>
   </energy>
  </scstep>
  <scstep>
   <time name="dav">    0.23    0.23</time>
   <time name="total">    0.23    0.23</time>
   <energy>
    <i name="e_fr_energy">    -18.05726006 </i>
    <i name="e_wo_entrp">    -18.05726006 </i>
    <i name="e_0_energy">    -18.05726006 </i>
   </energy>
  </scstep>
  <scstep>
   <time name="dav">    0.28    0.28</time>
   <time name="total">    0.28    0.29</time>
   <energy>
    <i name="e_fr_energy">    -17.09604739 </i>
    <i name="e_wo_entrp">    -17.09604739 </i>
    <i name="e_0_energy">    -17.09604739 </i>
   </energy>
  </scstep>
  <scstep>
   <time name="dav">    0.26    0.26</time>
   <time name="total">    0.27    0.28</time>
   <energy>
    <i name="e_fr_energy">    -17.01679705 </i>
    <i name="e_wo_entrp">    -17.01679705 </i>
    <i name="e_0_energy">    -17.01679705 </i>
   </energy>
  </scstep>
  <scstep>
   <time name="dav">    0.25    0.25</time>
   <time name="total">    0.26    0.27</time>
   <energy>
    <i name="e_fr_energy">    -17.00161565 </i>
    <i name="e_wo_entrp">    -17.00161565 </i>
    <i name="e_0_energy">    -17.00161565 </i>
   </energy>
  </scstep>
  <scstep>
   <time name="dav">    0.25    0.25</time>
   <time name="total">    0.25    0.25</time>
   <energy>
    <i name="e_fr_energy">    -17.00201634 </i>
    <i name="e_wo_entrp">    -17.00201634 </i>
    <i name="e_0_energy">    -17.00201634 </i>
   </energy>
  </scstep>
  <scstep>
   <time name="dav">    0.26    0.26</time>
   <time name="total">    0.26    0.26</time>
   <energy>
    <i name="e_fr_energy">    -17.00201824 </i>
    <i name="e_wo_entrp">    -17.00201824 </i>
    <i name="e_0_energy">    -17.00201824 </i>
   </energy>
  </scstep>
  <scstep>
   <time name="dav">    0.25    0.25</time>
   <time name="total">    0.26    0.26</time>
   <energy>
    <i name="e_fr_energy">    -17.00202310 </i>
    <i name="e_wo_entrp">    -17.00202310 </i>
    <i name="e_0_energy">    -17.00202310 </i>
   </energy>
  </scstep>
  <scstep>
   <time name="dav">    0.22    0.22</time>
   <time name="total">    0.23    0.23</time>
   <energy>
    <i name="alphaZ">     29.85653316 </i>
    <i name="ewald">   -357.30075995 </i>
    <i name="hartreedc">    -50.29340691 </i>
    <i name="XCdc">     28.93897677 </i>
    <i name="pawpsdc">    865.94735577 </i>
    <i name="pawaedc">   -866.67006275 </i>
    <i name="eentropy">     -0.00000000 </i>
    <i name="bandstr">     -3.18594870 </i>
    <i name="atom">    335.70528947 </i>
    <i name="e_fr_energy">    -17.00202314 </i>
    <i name="e_wo_entrp">    -17.00202314 </i>
    <i name="e_0_energy">    -17.00202314 </i>
   </energy>
  </scstep>
  <structure>
   <crystal>
    <varray name="basis" >
     <v>       0.00000000       1.81300100       1.81300100 </v>
     <v>       1.81300100       0.00000000       1.81300100 </v>
     <v>       1.81300100       1.81300100       0.00000000 </v>
    </varray>
    <i name="volume">     11.91856932 </i>
    <varray name="rec_basis" >
     <v>      -0.27578584       0.27578584       0.27578584 </v>
     <v>       0.27578584      -0.27578584       0.27578584 </v>
     <v>       0.27578584       0.27578584      -0.27578584 </v>
    </varray>
   </crystal>
   <varray name="positions" >
    <v>       0.00000000       0.00000000       0.00000000 </v>
    <v>       0.75000000       0.75000000       0.75000000 </v>
   </varray>
  </structure>
  <varray name="forces" >
   <v>      -0.00000000      -0.00000000      -0.00000000 </v>
   <v>       0.00000000       0.00000000       0.00000000 </v>
  </varray>
  <varray name="stress" >
   <v>      40.48453393       0.00000000       0.00000000 </v>
   <v>       0.00000000      40.48453393      -0.00000000 </v>
   <v>       0.00000000       0.00000000      40.48453393 </v>
  </varray>
  <energy>
   <i name="e_fr_energy">    -17.00201570 </i>
   <i name="e_wo_entrp">    -17.00201570 </i>
   <i name="e_0_energy">    -17.00201570 </i>
  </energy>
  <time name="totalsc">    3.12    3.15</time>
 </calculation>
 <calculation>
  <scstep>
   <time name="dav">    0.24    0.24</time>
   <time name="total">    0.25    0.25</time>
   <energy>
    <i name="alphaZ">     29.72677847 </i>
    <i name="ewald">   -356.78240580 </i>
    <i name="hartreedc">    -50.22057769 </i>
    <i name="XCdc">     28.89834496 </i>
    <i name="pawpsdc">    865.99771187 </i>
    <i name="pawaedc">   -866.72042509 </i>
    <i name="eentropy">     -0.00000000 </i>
    <i name="bandstr">     -3.60809905 </i>
    <i name="atom">    335.70528947 </i>
    <i name="e_fr_energy">    -17.00338285 </i>
    <i name="e_wo_entrp">    -17.00338285 </i>
    <i name="e_0_energy">    -17.00338285 </i>
   </energy>
  </scstep>
  <scstep>
   <time name="dav">    0.26    0.26</time>
   <time name="total">    0.27    0.27</time>
   <energy>
    <i name="e_fr_energy">    -17.00308650 </i>
    <i name="e_wo_entrp">    -17.00308650 </i>
    <i name="e_0_energy">    -17.00308650 </i>
   </energy>
  </scstep>
  <scstep>
   <time name="dav">    0.29    0.29</time>
   <time name="total">    0.30    0.30</time>
   <energy>
    <i name="e_fr_energy">    -17.00307139 </i>
    <i name="e_wo_entrp">    -17.00307139 </i>
    <i name="e_0_energy">    -17.00307139 </i>
   </energy>
  </scstep>
  <scstep>
   <time name="dav">    0.25    0.25</time>
   <time name="total">    0.26    0.26</time>
   <energy>
    <i name="e_fr_energy">    -17.00306646 </i>
    <i name="e_wo_entrp">    -17.00306646 </i>
    <i name="e_0_energy">    -17.00306646 </i>
   </energy>
  </scstep>
  <scstep>
   <time name="dav">    0.18    0.18</time>
   <time name="total">    0.18    0.18</time>
   <energy>
    <i name="alphaZ">     29.72677847 </i>
    <i name="ewald">   -356.78240580 </i>
    <i name="hartreedc">    -50.40611990 </i>
    <i name="XCdc">     28.91208349 </i>
    <i name="pawpsdc">    860.52051157 </i>
    <i name="pawaedc">   -861.24050591 </i>
    <i name="eentropy">     -0.00000000 </i>
    <i name="bandstr">     -3.43869772 </i>
    <i name="atom">    335.70528947 </i>
    <i name="e_fr_energy">    -17.00306632 </i>
    <i name="e_wo_entrp">    -17.00306632 </i>
    <i name="e_0_energy">    -17.00306632 </i>
   </energy>
  </scstep>
  <structure>
   <crystal>
    <varray name="basis" >
     <v>       0.00000000       1.81563503       1.81563503 </v>
     <v>       1.81563503       0.00000000       1.81563503 </v>
     <v>       1.81563503       1.81563503      -0.00000000 </v>
    </varray>
    <i name="volume">     11.97059279 </i>
    <varray name="rec_basis" >
     <v>      -0.27538574       0.27538574       0.27538574 </v>
     <v>       0.27538574      -0.27538574       0.27538574 </v>
     <v>       0.27538574       0.27538574      -0.27538574 </v>
    </varray>
   </crystal>
   <varray name="positions" >
    <v>      -0.00000000      -0.00000000      -0.00000000 </v>
    <v>       0.75000000       0.75000000       0.75000000 </v>
   </varray>
  </structure>
  <varray name="forces" >
   <v>       0.00000000       0.00000000       0.00000000 </v>
   <v>      -0.00000000      -0.00000000      -0.00000000 </v>
  </varray>
  <varray name="stress" >
   <v>      23.93937710      -0.00000000      -0.00000000 </v>
   <v>       0.00000000      23.93937710      -0.00000000 </v>
   <v>       0.00000000      -0.00000000      23.93937710 </v>
  </varray>
  <energy>
   <i name="e_fr_energy">    -17.00305885 </i>
   <i name="e_wo_entrp">    -17.00305885 </i>
   <i name="e_0_energy">    -17.00305885 </i>
  </energy>
  <time name="totalsc">    1.32    1.32</time>
 </calculation>
 <calculation>
  <scstep>
   <time name="dav">    0.25    0.25</time>
   <time name="total">    0.25    0.25</time>
   <energy>
    <i name="alphaZ">     29.53837524 </i>
    <i name="ewald">   -356.02706588 </i>
    <i name="hartreedc">    -50.29928174 </i>
    <i name="XCdc">     28.85280877 </i>
    <i name="pawpsdc">    860.58379047 </i>
    <i name="pawaedc">   -861.30373342 </i>
    <i name="eentropy">     -0.00000000 </i>
    <i name="bandstr">     -4.05449710 </i>
    <i name="atom">    335.70528947 </i>
    <i name="e_fr_energy">    -17.00431419 </i>
    <i name="e_wo_entrp">    -17.00431419 </i>
    <i name="e_0_energy">    -17.00431419 </i>
   </energy>
  </scstep>
  <scstep>
   <time name="dav">    0.28    0.28</time>
   <time name="total">    0.28    0.28</time>
   <energy>
    <i name="e_fr_energy">    -17.00368042 </i>
    <i name="e_wo_entrp">    -17.00368042 </i>
    <i name="e_0_energy">    -17.00368042 </i>
   </energy>
  </scstep>
  <scstep>
   <time name="dav">    0.26    0.26</time>
   <time name="total">    0.26    0.26</time>
   <energy>
    <i name="e_fr_energy">    -17.00364873 </i>
    <i name="e_wo_entrp">    -17.00364873 </i>
    <i name="e_0_energy">    -17.00364873 </i>
   </energy>
  </scstep>
  <scstep>
   <time name="dav">    0.26    0.26</time>
   <time name="total">    0.26    0.26</time>
   <energy>
    <i name="e_fr_energy">    -17.00363842 </i>
    <i name="e_wo_entrp">    -17.00363842 </i>
    <i name="e_0_energy">    -17.00363842 </i>
   </energy>
  </scstep>
  <scstep>
   <time name="dav">    0.20    0.20</time>
   <time name="total">    0.20    0.20</time>
   <energy>
    <i name="alphaZ">     29.53837524 </i>
    <i name="ewald">   -356.02706588 </i>
    <i name="hartreedc">    -50.57064221 </i>
    <i name="XCdc">     28.87289950 </i>
    <i name="pawpsdc">    852.67443224 </i>
    <i name="pawaedc">   -853.39045233 </i>
    <i name="eentropy">     -0.00000000 </i>
    <i name="bandstr">     -3.80647425 </i>
    <i name="atom">    335.70528947 </i>
    <i name="e_fr_energy">    -17.00363821 </i>
    <i name="e_wo_entrp">    -17.00363821 </i>
    <i name="e_0_energy">    -17.00363821 </i>
   </energy>
  </scstep>
  <structure>
   <crystal>
    <varray name="basis" >
     <v>       0.00000000       1.81948705       1.81948705 </v>
     <v>       1.81948705       0.00000000       1.81948705 </v>
     <v>       1.81948705       1.81948705      -0.00000000 </v>
    </varray>
    <i name="volume">     12.04694426 </i>
    <varray name="rec_basis" >
     <v>      -0.27480273       0.27480273       0.27480273 </v>
     <v>       0.27480273      -0.27480273       0.27480273 </v>
     <v>       0.27480273       0.27480273      -0.27480273 </v>
    </varray>
   </crystal>
   <varray name="positions" >
    <v>      -0.00000000      -0.00000000      -0.00000000 </v>
    <v>       0.75000000       0.75000000       0.75000000 </v>
   </varray>
  </structure>
  <varray name="forces" >
   <v>      -0.00000000      -0.00000000       0.00000000 </v>
   <v>       0.00000000       0.00000000      -0.00000000 </v>
  </varray>
  <varray name="stress" >
   <v>       0.26431367       0.00000000       0.00000000 </v>
   <v>      -0.00000000       0.26431367      -0.00000000 </v>
   <v>       0.00000000      -0.00000000       0.26431367 </v>
  </varray>
  <energy>
   <i name="e_fr_energy">    -17.00363069 </i>
   <i name="e_wo_entrp">    -17.00363069 </i>
   <i name="e_0_energy">    -17.00363069 </i>
  </energy>
  <time name="totalsc">    1.31    1.31</time>
  <eigenvalues>
   <array>
    <dimension dim="1">band</dimension>
    <dimension dim="2">kpoint</dimension>
    <dimension dim="3">spin</dimension>
    <field>eigene</field>
    <field>occ</field>
    <set>
     <set comment="spin 1">
      <set comment="kpoint 1">
       <r>  -12.7762    1.0000 </r>
       <r>    7.2791    1.0000 </r>
       <r>    7.2791    1.0000 </r>
       <r>    7.2791    1.0000 </r>
       <r>   15.9113    0.0000 </r>
       <r>   15.9113    0.0000 </r>
       <r>   15.9113    0.0000 </r>
       <r>   17.2811    0.0000 </r>
       <r>   31.5644    0.0000 </r>
       <r>   34.7105    0.0000 </r>
       <r>   34.7105    0.0000 </r>
       <r>   35.3055    0.0000 </r>
       <r>   35.3055    0.0000 </r>
       <r>   35.3055    0.0000 </r>
       <r>   42.4346    0.0000 </r>
       <r>   53.6194    0.0000 </r>
       <r>   53.6194    0.0000 </r>
       <r>   53.6194    0.0000 </r>
       <r>   74.3275    0.0000 </r>
       <r>   74.3275    0.0000 </r>
       <r>   74.3275    0.0000 </r>
       <r>   78.4014    0.0000 </r>
       <r>   78.4014    0.0000 </r>
       <r>   80.5621    0.0000 </r>
       <r>   80.5621    0.0000 </r>
       <r>   80.5621    0.0000 </r>
       <r>   85.5594    0.0000 </r>
       <r>   85.5594    0.0000 </r>
       <r>   85.5594    0.0000 </r>
       <r>   91.7411    0.0000 </r>
       <r>  104.8548    0.0000 </r>
       <r>  104.8548    0.0000 </r>
       <r>  104.8548    0.0000 </r>
       <r>  109.1786    0.0000 </r>
       <r>  109.1786    0.0000 </r>
       <r>  110.1792    0.0000 </r>
       <r>  110.1792    0.0000 </r>
       <r>  110.1792    0.0000 </r>
       <r>  112.2589    0.0000 </r>
       <r>  112.2589    0.0000 </r>
       <r>  114.1441    0.0000 </r>
       <r>  114.1441    0.0000 </r>
       <r>  114.1441    0.0000 </r>
       <r>  115.0623    0.0000 </r>
       <r>  115.0623    0.0000 </r>
       <r>  115.0623    0.0000 </r>
       <r>  115.8200    0.0000 </r>
       <r>  116.2129    0.0000 </r>
       <r>  116.2129    0.0000 </r>
       <r>  116.2129    0.0000 </r>
       <r>  123.5498    0.0000 </r>
       <r>  125.4546    0.0000 </r>
       <r>  125.4546    0.0000 </r>
       <r>  125.4546    0.0000 </r>
       <r>  126.1070    0.0000 </r>
       <r>  126.1070    0.0000 </r>
       <r>  126.1070    0.0000 </r>
       <r>  129.9728    0.0000 </r>
       <r>  141.1742    0.0000 </r>
       <r>  164.0873    0.0000 </r>
       <r>  164.0873    0.0000 </r>
       <r>  164.0873    0.0000 </r>
       <r>  168.8843    0.0000 </r>
       <r>  168.8843    0.0000 </r>
       <r>  175.2459    0.0000 </r>
       <r>  177.4966    0.0000 </r>
       <r>  177.4966    0.0000 </r>
       <r>  177.4966    0.0000 </r>
       <r>  187.5794    0.0000 </r>
       <r>  187.5794    0.0000 </r>
       <r>  187.5794    0.0000 </r>
       <r>  196.8424    0.0000 </r>
       <r>  196.8424    0.0000 </r>
       <r>  196.8424    0.0000 </r>
       <r>  197.5418    0.0000 </r>
       <r>  197.5418    0.0000 </r>
       <r>  197.9756    0.0000 </r>
       <r>  197.9756    0.0000 </r>
       <r>  197.9756    0.0000 </r>
       <r>  202.5103    0.0000 </r>
       <r>  202.5103    0.0000 </r>
       <r>  202.5103    0.0000 </r>
       <r>  203.4062    0.0000 </r>
       <r>  203.4062    0.0000 </r>
       <r>  203.4062    0.0000 </r>
       <r>  204.2242    0.0000 </r>
       <r>  204.2242    0.0000 </r>
       <r>  208.4358    0.0000 </r>
       <r>  211.3292    0.0000 </r>
       <r>  211.3292    0.0000 </r>
       <r>  211.3292    0.0000 </r>
       <r>  212.7850    0.0000 </r>
       <r>  212.7850    0.0000 </r>
       <r>  214.7971    0.0000 </r>
       <r>  215.8800    0.0000 </r>
       <r>  215.8800    0.0000 </r>
       <r>  215.8800    0.0000 </r>
       <r>  216.8208    0.0000 </r>
       <r>  216.8208    0.0000 </r>
       <r>  216.8208    0.0000 </r>
       <r>  217.2912    0.0000 </r>
       <r>  217.2912    0.0000 </r>
       <r>  217.2912    0.0000 </r>
       <r>  218.3750    0.0000 </r>
       <r>  218.3750    0.0000 </r>
       <r>  218.3750    0.0000 </r>
       <r>  219.5781    0.0000 </r>
       <r>  219.9477    0.0000 </r>
       <r>  219.9477    0.0000 </r>
       <r>  219.9477    0.0000 </r>
       <r>  220.0623    0.0000 </r>
       <r>  220.0623    0.0000 </r>
       <r>  237.7231    0.0000 </r>
       <r>  247.3344    0.0000 </r>
       <r>  247.3344    0.0000 </r>
       <r>  247.3344    0.0000 </r>
       <r>  254.3558    0.0000 </r>
       <r>  255.2858    0.0000 </r>
       <r>  255.2858    0.0000 </r>
       <r>  255.2858    0.0000 </r>
       <r>  258.9888    0.0000 </r>
       <r>  258.9888    0.0000 </r>
       <r>  258.9888    0.0000 </r>
       <r>  260.1134    0.0000 </r>
       <r>  260.1152    0.0000 </r>
       <r>  260.1361    0.0000 </r>
       <r>  260.3408    0.0000 </r>
       <r>  260.3482    0.0000 </r>
      </set>
      <set comment="kpoint 2">
       <r>  -11.3180    1.0000 </r>
       <r>    1.8419    1.0000 </r>
       <r>    6.1614    1.0000 </r>
       <r>    6.1614    1.0000 </r>
       <r>   16.6534    0.0000 </r>
       <r>   17.4155    0.0000 </r>
       <r>   17.4155    0.0000 </r>
       <r>   20.5684    0.0000 </r>
       <r>   30.3868    0.0000 </r>
       <r>   30.5949    0.0000 </r>
       <r>   30.5949    0.0000 </r>
       <r>   34.6515    0.0000 </r>
       <r>   45.9555    0.0000 </r>
       <r>   45.9555    0.0000 </r>
       <r>   50.1453    0.0000 </r>
       <r>   50.1453    0.0000 </r>
       <r>   50.4449    0.0000 </r>
       <r>   51.8354    0.0000 </r>
       <r>   65.4833    0.0000 </r>
       <r>   65.4833    0.0000 </r>
       <r>   75.0831    0.0000 </r>
       <r>   76.7382    0.0000 </r>
       <r>   76.7382    0.0000 </r>
       <r>   81.4523    0.0000 </r>
       <r>   81.4523    0.0000 </r>
       <r>   82.4556    0.0000 </r>
       <r>   83.3143    0.0000 </r>
       <r>   87.7298    0.0000 </r>
       <r>   88.7980    0.0000 </r>
       <r>   88.7980    0.0000 </r>
       <r>   96.9263    0.0000 </r>
       <r>   97.9930    0.0000 </r>
       <r>   97.9930    0.0000 </r>
       <r>  100.5540    0.0000 </r>
       <r>  100.5540    0.0000 </r>
       <r>  101.0731    0.0000 </r>
       <r>  104.1531    0.0000 </r>
       <r>  104.1531    0.0000 </r>
       <r>  105.2548    0.0000 </r>
       <r>  111.7960    0.0000 </r>
       <r>  111.7960    0.0000 </r>
       <r>  112.3595    0.0000 </r>
       <r>  114.4575    0.0000 </r>
       <r>  120.8839    0.0000 </r>
       <r>  120.8839    0.0000 </r>
       <r>  123.2497    0.0000 </r>
       <r>  123.6867    0.0000 </r>
       <r>  123.6867    0.0000 </r>
       <r>  131.0258    0.0000 </r>
       <r>  131.0258    0.0000 </r>
       <r>  131.3500    0.0000 </r>
       <r>  133.9859    0.0000 </r>
       <r>  134.6818    0.0000 </r>
       <r>  139.6083    0.0000 </r>
       <r>  139.6083    0.0000 </r>
       <r>  140.3077    0.0000 </r>
       <r>  143.7616    0.0000 </r>
       <r>  143.7616    0.0000 </r>
       <r>  146.6753    0.0000 </r>
       <r>  146.6753    0.0000 </r>
       <r>  152.5867    0.0000 </r>
       <r>  159.9436    0.0000 </r>
       <r>  159.9436    0.0000 </r>
       <r>  160.0904    0.0000 </r>
       <r>  161.5505    0.0000 </r>
       <r>  167.6475    0.0000 </r>
       <r>  167.6475    0.0000 </r>
       <r>  176.0159    0.0000 </r>
       <r>  179.3632    0.0000 </r>
       <r>  179.3632    0.0000 </r>
       <r>  184.6958    0.0000 </r>
       <r>  185.3422    0.0000 </r>
       <r>  186.0519    0.0000 </r>
       <r>  186.0519    0.0000 </r>
       <r>  186.6259    0.0000 </r>
       <r>  186.6259    0.0000 </r>
       <r>  190.1252    0.0000 </r>
       <r>  190.1252    0.0000 </r>
       <r>  194.4047    0.0000 </r>
       <r>  194.5863    0.0000 </r>
       <r>  194.5863    0.0000 </r>
       <r>  195.5050    0.0000 </r>
       <r>  198.7186    0.0000 </r>
       <r>  198.7186    0.0000 </r>
       <r>  201.9531    0.0000 </r>
       <r>  205.9817    0.0000 </r>
       <r>  205.9817    0.0000 </r>
       <r>  206.0322    0.0000 </r>
       <r>  206.3491    0.0000 </r>
       <r>  209.3166    0.0000 </r>
       <r>  210.0058    0.0000 </r>
       <r>  210.0058    0.0000 </r>
       <r>  213.5669    0.0000 </r>
       <r>  213.5669    0.0000 </r>
       <r>  213.8679    0.0000 </r>
       <r>  217.0853    0.0000 </r>
       <r>  217.0853    0.0000 </r>
       <r>  217.2360    0.0000 </r>
       <r>  225.2476    0.0000 </r>
       <r>  225.2476    0.0000 </r>
       <r>  228.0374    0.0000 </r>
       <r>  228.6686    0.0000 </r>
       <r>  228.6686    0.0000 </r>
       <r>  230.8329    0.0000 </r>
       <r>  231.0639    0.0000 </r>
       <r>  231.0639    0.0000 </r>
       <r>  231.1416    0.0000 </r>
       <r>  233.3631    0.0000 </r>
       <r>  233.3631    0.0000 </r>
       <r>  237.5224    0.0000 </r>
       <r>  239.7365    0.0000 </r>
       <r>  239.8296    0.0000 </r>
       <r>  239.8296    0.0000 </r>
       <r>  241.4540    0.0000 </r>
       <r>  241.4540    0.0000 </r>
       <r>  244.8749    0.0000 </r>
       <r>  247.9077    0.0000 </r>
       <r>  250.6420    0.0000 </r>
       <r>  250.6420    0.0000 </r>
       <r>  253.0078    0.0000 </r>
       <r>  254.0886    0.0000 </r>
       <r>  255.3212    0.0000 </r>
       <r>  255.3212    0.0000 </r>
       <r>  256.0578    0.0000 </r>
       <r>  256.0578    0.0000 </r>
       <r>  257.8474    0.0000 </r>
       <r>  258.1251    0.0000 </r>
       <r>  258.1251    0.0000 </r>
      </set>
      <set comment="kpoint 3">
       <r>   -8.6319    1.0000 </r>
       <r>   -3.2943    1.0000 </r>
       <r>    5.3577    1.0000 </r>
       <r>    5.3577    1.0000 </r>
       <r>   17.1066    0.0000 </r>
       <r>   17.7926    0.0000 </r>
       <r>   17.7926    0.0000 </r>
       <r>   22.3072    0.0000 </r>
       <r>   30.3846    0.0000 </r>
       <r>   33.5741    0.0000 </r>
       <r>   33.8103    0.0000 </r>
       <r>   33.8103    0.0000 </r>
       <r>   41.8809    0.0000 </r>
       <r>   41.8809    0.0000 </r>
       <r>   52.8210    0.0000 </r>
       <r>   58.9174    0.0000 </r>
       <r>   58.9174    0.0000 </r>
       <r>   63.6294    0.0000 </r>
       <r>   64.4314    0.0000 </r>
       <r>   64.4314    0.0000 </r>
       <r>   66.9122    0.0000 </r>
       <r>   66.9122    0.0000 </r>
       <r>   69.5584    0.0000 </r>
       <r>   71.4937    0.0000 </r>
       <r>   79.9229    0.0000 </r>
       <r>   79.9229    0.0000 </r>
       <r>   82.6342    0.0000 </r>
       <r>   82.6342    0.0000 </r>
       <r>   85.9941    0.0000 </r>
       <r>   86.9488    0.0000 </r>
       <r>   91.0628    0.0000 </r>
       <r>   91.0628    0.0000 </r>
       <r>   93.3070    0.0000 </r>
       <r>   94.5184    0.0000 </r>
       <r>  102.0612    0.0000 </r>
       <r>  102.0612    0.0000 </r>
       <r>  107.2765    0.0000 </r>
       <r>  109.2906    0.0000 </r>
       <r>  109.2906    0.0000 </r>
       <r>  110.7490    0.0000 </r>
       <r>  117.0504    0.0000 </r>
       <r>  120.1589    0.0000 </r>
       <r>  126.3984    0.0000 </r>
       <r>  126.3984    0.0000 </r>
       <r>  128.8187    0.0000 </r>
       <r>  128.8187    0.0000 </r>
       <r>  131.5219    0.0000 </r>
       <r>  131.5219    0.0000 </r>
       <r>  132.5054    0.0000 </r>
       <r>  132.5054    0.0000 </r>
       <r>  133.8310    0.0000 </r>
       <r>  138.1887    0.0000 </r>
       <r>  140.2741    0.0000 </r>
       <r>  140.2741    0.0000 </r>
       <r>  144.5930    0.0000 </r>
       <r>  146.6122    0.0000 </r>
       <r>  146.6122    0.0000 </r>
       <r>  153.4861    0.0000 </r>
       <r>  153.4861    0.0000 </r>
       <r>  153.9781    0.0000 </r>
       <r>  153.9781    0.0000 </r>
       <r>  157.8178    0.0000 </r>
       <r>  158.1663    0.0000 </r>
       <r>  158.8571    0.0000 </r>
       <r>  160.2803    0.0000 </r>
       <r>  160.2803    0.0000 </r>
       <r>  161.3395    0.0000 </r>
       <r>  161.4407    0.0000 </r>
       <r>  161.4407    0.0000 </r>
       <r>  163.5758    0.0000 </r>
       <r>  169.6995    0.0000 </r>
       <r>  177.3978    0.0000 </r>
       <r>  177.3978    0.0000 </r>
       <r>  178.0638    0.0000 </r>
       <r>  178.5137    0.0000 </r>
       <r>  178.5137    0.0000 </r>
       <r>  183.6676    0.0000 </r>
       <r>  183.6676    0.0000 </r>
       <r>  191.5335    0.0000 </r>
       <r>  191.5335    0.0000 </r>
       <r>  194.1513    0.0000 </r>
       <r>  197.6972    0.0000 </r>
       <r>  197.6972    0.0000 </r>
       <r>  199.2603    0.0000 </r>
       <r>  199.9471    0.0000 </r>
       <r>  204.2005    0.0000 </r>
       <r>  204.7774    0.0000 </r>
       <r>  204.7774    0.0000 </r>
       <r>  205.2750    0.0000 </r>
       <r>  210.9662    0.0000 </r>
       <r>  213.2072    0.0000 </r>
       <r>  213.2072    0.0000 </r>
       <r>  215.8419    0.0000 </r>
       <r>  220.2760    0.0000 </r>
       <r>  220.2760    0.0000 </r>
       <r>  221.6220    0.0000 </r>
       <r>  221.6220    0.0000 </r>
       <r>  221.8790    0.0000 </r>
       <r>  222.3603    0.0000 </r>
       <r>  222.4612    0.0000 </r>
       <r>  222.4612    0.0000 </r>
       <r>  223.9858    0.0000 </r>
       <r>  223.9858    0.0000 </r>
       <r>  224.6459    0.0000 </r>
       <r>  224.7854    0.0000 </r>
       <r>  225.2890    0.0000 </r>
       <r>  225.2890    0.0000 </r>
       <r>  236.4017    0.0000 </r>
       <r>  241.6410    0.0000 </r>
       <r>  241.6410    0.0000 </r>
       <r>  242.6459    0.0000 </r>
       <r>  244.9955    0.0000 </r>
       <r>  244.9955    0.0000 </r>
       <r>  247.9855    0.0000 </r>
       <r>  247.9855    0.0000 </r>
       <r>  248.0603    0.0000 </r>
       <r>  248.2506    0.0000 </r>
       <r>  248.3283    0.0000 </r>
       <r>  248.3283    0.0000 </r>
       <r>  251.5578    0.0000 </r>
       <r>  259.4616    0.0000 </r>
       <r>  260.1383    0.0000 </r>
       <r>  260.1383    0.0000 </r>
       <r>  262.1876    0.0000 </r>
       <r>  263.4347    0.0000 </r>
       <r>  263.4347    0.0000 </r>
       <r>  264.2168    0.0000 </r>
       <r>  264.2227    0.0000 </r>
      </set>
      <set comment="kpoint 4">
       <r>  -10.8400    1.0000 </r>
       <r>    3.3042    1.0000 </r>
       <r>    4.3026    1.0000 </r>
       <r>    4.3026    1.0000 </r>
       <r>   13.9101    0.0000 </r>
       <r>   18.5765    0.0000 </r>
       <r>   20.4652    0.0000 </r>
       <r>   20.4652    0.0000 </r>
       <r>   25.2708    0.0000 </r>
       <r>   33.9250    0.0000 </r>
       <r>   37.5203    0.0000 </r>
       <r>   40.2568    0.0000 </r>
       <r>   40.2568    0.0000 </r>
       <r>   42.8904    0.0000 </r>
       <r>   48.2649    0.0000 </r>
       <r>   48.2649    0.0000 </r>
       <r>   52.1639    0.0000 </r>
       <r>   58.2120    0.0000 </r>
       <r>   59.9659    0.0000 </r>
       <r>   70.0612    0.0000 </r>
       <r>   70.0612    0.0000 </r>
       <r>   75.5522    0.0000 </r>
       <r>   76.0713    0.0000 </r>
       <r>   76.0713    0.0000 </r>
       <r>   77.4326    0.0000 </r>
       <r>   79.3318    0.0000 </r>
       <r>   85.6952    0.0000 </r>
       <r>   89.0836    0.0000 </r>
       <r>   89.0836    0.0000 </r>
       <r>   96.3954    0.0000 </r>
       <r>   97.7778    0.0000 </r>
       <r>   97.7778    0.0000 </r>
       <r>   99.0057    0.0000 </r>
       <r>  100.5739    0.0000 </r>
       <r>  101.7041    0.0000 </r>
       <r>  104.4276    0.0000 </r>
       <r>  104.4276    0.0000 </r>
       <r>  104.6724    0.0000 </r>
       <r>  106.5937    0.0000 </r>
       <r>  108.9726    0.0000 </r>
       <r>  108.9726    0.0000 </r>
       <r>  109.7995    0.0000 </r>
       <r>  114.3759    0.0000 </r>
       <r>  117.5657    0.0000 </r>
       <r>  117.5657    0.0000 </r>
       <r>  123.4235    0.0000 </r>
       <r>  126.9537    0.0000 </r>
       <r>  127.0743    0.0000 </r>
       <r>  127.0743    0.0000 </r>
       <r>  127.1272    0.0000 </r>
       <r>  128.6919    0.0000 </r>
       <r>  133.4326    0.0000 </r>
       <r>  136.6311    0.0000 </r>
       <r>  144.0697    0.0000 </r>
       <r>  144.5511    0.0000 </r>
       <r>  144.5511    0.0000 </r>
       <r>  150.4209    0.0000 </r>
       <r>  153.8375    0.0000 </r>
       <r>  154.0204    0.0000 </r>
       <r>  154.0204    0.0000 </r>
       <r>  154.7340    0.0000 </r>
       <r>  154.7340    0.0000 </r>
       <r>  164.6747    0.0000 </r>
       <r>  164.6747    0.0000 </r>
       <r>  165.3143    0.0000 </r>
       <r>  166.7978    0.0000 </r>
       <r>  170.6956    0.0000 </r>
       <r>  171.2371    0.0000 </r>
       <r>  172.3617    0.0000 </r>
       <r>  172.3617    0.0000 </r>
       <r>  173.4907    0.0000 </r>
       <r>  174.8194    0.0000 </r>
       <r>  176.8816    0.0000 </r>
       <r>  176.8816    0.0000 </r>
       <r>  179.5811    0.0000 </r>
       <r>  181.1227    0.0000 </r>
       <r>  186.2573    0.0000 </r>
       <r>  186.2573    0.0000 </r>
       <r>  191.9853    0.0000 </r>
       <r>  193.3842    0.0000 </r>
       <r>  193.3842    0.0000 </r>
       <r>  194.6237    0.0000 </r>
       <r>  195.5638    0.0000 </r>
       <r>  197.8220    0.0000 </r>
       <r>  202.6522    0.0000 </r>
       <r>  202.6522    0.0000 </r>
       <r>  207.2501    0.0000 </r>
       <r>  212.9198    0.0000 </r>
       <r>  214.4726    0.0000 </r>
       <r>  214.4726    0.0000 </r>
       <r>  216.0125    0.0000 </r>
       <r>  217.4887    0.0000 </r>
       <r>  217.4887    0.0000 </r>
       <r>  217.6497    0.0000 </r>
       <r>  217.9194    0.0000 </r>
       <r>  218.6202    0.0000 </r>
       <r>  220.3083    0.0000 </r>
       <r>  222.4304    0.0000 </r>
       <r>  222.4304    0.0000 </r>
       <r>  222.8894    0.0000 </r>
       <r>  225.4988    0.0000 </r>
       <r>  228.7782    0.0000 </r>
       <r>  228.7782    0.0000 </r>
       <r>  230.2844    0.0000 </r>
       <r>  231.4716    0.0000 </r>
       <r>  233.6833    0.0000 </r>
       <r>  233.6833    0.0000 </r>
       <r>  234.9590    0.0000 </r>
       <r>  237.5656    0.0000 </r>
       <r>  237.8325    0.0000 </r>
       <r>  238.2806    0.0000 </r>
       <r>  238.2806    0.0000 </r>
       <r>  240.1724    0.0000 </r>
       <r>  240.5542    0.0000 </r>
       <r>  240.5542    0.0000 </r>
       <r>  241.1252    0.0000 </r>
       <r>  241.2906    0.0000 </r>
       <r>  242.5862    0.0000 </r>
       <r>  242.5862    0.0000 </r>
       <r>  244.3849    0.0000 </r>
       <r>  245.8665    0.0000 </r>
       <r>  245.8683    0.0000 </r>
       <r>  245.8683    0.0000 </r>
       <r>  247.0445    0.0000 </r>
       <r>  251.6966    0.0000 </r>
       <r>  259.5763    0.0000 </r>
       <r>  262.7789    0.0000 </r>
       <r>  262.7789    0.0000 </r>
      </set>
      <set comment="kpoint 5">
       <r>   -8.1928    1.0000 </r>
       <r>   -1.3843    1.0000 </r>
       <r>    2.1700    1.0000 </r>
       <r>    3.6663    1.0000 </r>
       <r>   14.6741    0.0000 </r>
       <r>   20.1318    0.0000 </r>
       <r>   21.4749    0.0000 </r>
       <r>   21.5566    0.0000 </r>
       <r>   26.9077    0.0000 </r>
       <r>   33.2681    0.0000 </r>
       <r>   35.5226    0.0000 </r>
       <r>   39.0291    0.0000 </r>
       <r>   43.7931    0.0000 </r>
       <r>   48.3036    0.0000 </r>
       <r>   51.3638    0.0000 </r>
       <r>   53.0343    0.0000 </r>
       <r>   57.9471    0.0000 </r>
       <r>   58.0748    0.0000 </r>
       <r>   59.3842    0.0000 </r>
       <r>   64.4461    0.0000 </r>
       <r>   66.4281    0.0000 </r>
       <r>   68.0189    0.0000 </r>
       <r>   70.9204    0.0000 </r>
       <r>   73.1804    0.0000 </r>
       <r>   75.1673    0.0000 </r>
       <r>   79.3918    0.0000 </r>
       <r>   81.0148    0.0000 </r>
       <r>   83.3296    0.0000 </r>
       <r>   85.8001    0.0000 </r>
       <r>   86.5454    0.0000 </r>
       <r>   91.9731    0.0000 </r>
       <r>   95.2796    0.0000 </r>
       <r>   97.3659    0.0000 </r>
       <r>   97.5249    0.0000 </r>
       <r>  101.4372    0.0000 </r>
       <r>  104.5530    0.0000 </r>
       <r>  105.9801    0.0000 </r>
       <r>  112.2954    0.0000 </r>
       <r>  113.1520    0.0000 </r>
       <r>  114.4663    0.0000 </r>
       <r>  115.2291    0.0000 </r>
       <r>  117.0705    0.0000 </r>
       <r>  120.5828    0.0000 </r>
       <r>  120.7019    0.0000 </r>
       <r>  124.5129    0.0000 </r>
       <r>  125.6849    0.0000 </r>
       <r>  127.9471    0.0000 </r>
       <r>  130.2283    0.0000 </r>
       <r>  131.2601    0.0000 </r>
       <r>  131.8450    0.0000 </r>
       <r>  138.4540    0.0000 </r>
       <r>  138.9495    0.0000 </r>
       <r>  142.4025    0.0000 </r>
       <r>  145.3248    0.0000 </r>
       <r>  147.6097    0.0000 </r>
       <r>  149.4177    0.0000 </r>
       <r>  150.1169    0.0000 </r>
       <r>  151.7406    0.0000 </r>
       <r>  153.1768    0.0000 </r>
       <r>  154.5654    0.0000 </r>
       <r>  156.2994    0.0000 </r>
       <r>  158.5601    0.0000 </r>
       <r>  159.0207    0.0000 </r>
       <r>  160.2388    0.0000 </r>
       <r>  160.5452    0.0000 </r>
       <r>  163.1292    0.0000 </r>
       <r>  163.3753    0.0000 </r>
       <r>  165.4474    0.0000 </r>
       <r>  169.7031    0.0000 </r>
       <r>  170.7634    0.0000 </r>
       <r>  171.2535    0.0000 </r>
       <r>  172.6218    0.0000 </r>
       <r>  174.9258    0.0000 </r>
       <r>  176.6395    0.0000 </r>
       <r>  178.4073    0.0000 </r>
       <r>  181.1381    0.0000 </r>
       <r>  183.0776    0.0000 </r>
       <r>  185.5520    0.0000 </r>
       <r>  186.2069    0.0000 </r>
       <r>  188.8595    0.0000 </r>
       <r>  189.8823    0.0000 </r>
       <r>  193.4848    0.0000 </r>
       <r>  194.9505    0.0000 </r>
       <r>  195.3737    0.0000 </r>
       <r>  197.0301    0.0000 </r>
       <r>  197.3920    0.0000 </r>
       <r>  198.7269    0.0000 </r>
       <r>  200.4487    0.0000 </r>
       <r>  204.7511    0.0000 </r>
       <r>  205.1538    0.0000 </r>
       <r>  205.5436    0.0000 </r>
       <r>  209.3695    0.0000 </r>
       <r>  210.9833    0.0000 </r>
       <r>  213.4836    0.0000 </r>
       <r>  215.2648    0.0000 </r>
       <r>  217.8182    0.0000 </r>
       <r>  218.0431    0.0000 </r>
       <r>  218.8781    0.0000 </r>
       <r>  219.5521    0.0000 </r>
       <r>  222.2857    0.0000 </r>
       <r>  224.0120    0.0000 </r>
       <r>  224.9609    0.0000 </r>
       <r>  227.1434    0.0000 </r>
       <r>  227.8046    0.0000 </r>
       <r>  228.8430    0.0000 </r>
       <r>  232.9051    0.0000 </r>
       <r>  235.3833    0.0000 </r>
       <r>  237.4678    0.0000 </r>
       <r>  238.1989    0.0000 </r>
       <r>  240.4392    0.0000 </r>
       <r>  242.0664    0.0000 </r>
       <r>  243.0183    0.0000 </r>
       <r>  244.8762    0.0000 </r>
       <r>  248.3817    0.0000 </r>
       <r>  249.3855    0.0000 </r>
       <r>  250.1337    0.0000 </r>
       <r>  250.9984    0.0000 </r>
       <r>  252.3256    0.0000 </r>
       <r>  252.7504    0.0000 </r>
       <r>  255.9495    0.0000 </r>
       <r>  256.6852    0.0000 </r>
       <r>  260.9501    0.0000 </r>
       <r>  261.0649    0.0000 </r>
       <r>  262.2874    0.0000 </r>
       <r>  263.7811    0.0000 </r>
       <r>  263.8258    0.0000 </r>
       <r>  265.1489    0.0000 </r>
       <r>  267.2536    0.0000 </r>
      </set>
      <set comment="kpoint 6">
       <r>   -9.1729    1.0000 </r>
       <r>   -0.2319    1.0000 </r>
       <r>    1.7371    1.0000 </r>
       <r>    5.2072    1.0000 </r>
       <r>   16.8142    0.0000 </r>
       <r>   19.2152    0.0000 </r>
       <r>   19.8796    0.0000 </r>
       <r>   21.4849    0.0000 </r>
       <r>   28.4427    0.0000 </r>
       <r>   29.0695    0.0000 </r>
       <r>   33.5835    0.0000 </r>
       <r>   40.6758    0.0000 </r>
       <r>   43.7904    0.0000 </r>
       <r>   48.7947    0.0000 </r>
       <r>   48.8553    0.0000 </r>
       <r>   50.1966    0.0000 </r>
       <r>   58.5291    0.0000 </r>
       <r>   60.1785    0.0000 </r>
       <r>   61.8003    0.0000 </r>
       <r>   63.8374    0.0000 </r>
       <r>   67.0998    0.0000 </r>
       <r>   70.3471    0.0000 </r>
       <r>   73.2648    0.0000 </r>
       <r>   73.7503    0.0000 </r>
       <r>   75.1207    0.0000 </r>
       <r>   77.9827    0.0000 </r>
       <r>   83.9866    0.0000 </r>
       <r>   85.2928    0.0000 </r>
       <r>   86.0101    0.0000 </r>
       <r>   88.8624    0.0000 </r>
       <r>   93.9783    0.0000 </r>
       <r>   95.0260    0.0000 </r>
       <r>   95.9226    0.0000 </r>
       <r>   98.0760    0.0000 </r>
       <r>   98.8296    0.0000 </r>
       <r>  103.0868    0.0000 </r>
       <r>  105.5759    0.0000 </r>
       <r>  106.7389    0.0000 </r>
       <r>  107.7708    0.0000 </r>
       <r>  113.7858    0.0000 </r>
       <r>  117.6972    0.0000 </r>
       <r>  118.6353    0.0000 </r>
       <r>  120.8276    0.0000 </r>
       <r>  123.3666    0.0000 </r>
       <r>  125.2652    0.0000 </r>
       <r>  126.7795    0.0000 </r>
       <r>  127.7363    0.0000 </r>
       <r>  130.1321    0.0000 </r>
       <r>  132.4165    0.0000 </r>
       <r>  134.0221    0.0000 </r>
       <r>  136.2388    0.0000 </r>
       <r>  138.7752    0.0000 </r>
       <r>  139.5512    0.0000 </r>
       <r>  140.8375    0.0000 </r>
       <r>  142.1206    0.0000 </r>
       <r>  142.7148    0.0000 </r>
       <r>  147.9129    0.0000 </r>
       <r>  149.6513    0.0000 </r>
       <r>  152.0655    0.0000 </r>
       <r>  152.8328    0.0000 </r>
       <r>  154.7843    0.0000 </r>
       <r>  159.5132    0.0000 </r>
       <r>  160.2998    0.0000 </r>
       <r>  160.7031    0.0000 </r>
       <r>  161.0887    0.0000 </r>
       <r>  163.4432    0.0000 </r>
       <r>  164.5251    0.0000 </r>
       <r>  169.6220    0.0000 </r>
       <r>  171.7417    0.0000 </r>
       <r>  171.9578    0.0000 </r>
       <r>  172.4505    0.0000 </r>
       <r>  175.9470    0.0000 </r>
       <r>  176.4207    0.0000 </r>
       <r>  177.5425    0.0000 </r>
       <r>  180.5434    0.0000 </r>
       <r>  182.6791    0.0000 </r>
       <r>  184.9276    0.0000 </r>
       <r>  185.1656    0.0000 </r>
       <r>  187.2549    0.0000 </r>
       <r>  189.1781    0.0000 </r>
       <r>  191.9298    0.0000 </r>
       <r>  192.7138    0.0000 </r>
       <r>  194.4985    0.0000 </r>
       <r>  196.7545    0.0000 </r>
       <r>  197.3031    0.0000 </r>
       <r>  198.8806    0.0000 </r>
       <r>  199.6606    0.0000 </r>
       <r>  200.6743    0.0000 </r>
       <r>  202.9851    0.0000 </r>
       <r>  203.2562    0.0000 </r>
       <r>  209.6270    0.0000 </r>
       <r>  210.0756    0.0000 </r>
       <r>  211.9875    0.0000 </r>
       <r>  216.2224    0.0000 </r>
       <r>  217.5840    0.0000 </r>
       <r>  219.3414    0.0000 </r>
       <r>  221.7043    0.0000 </r>
       <r>  224.6175    0.0000 </r>
       <r>  225.3031    0.0000 </r>
       <r>  225.9237    0.0000 </r>
       <r>  227.2191    0.0000 </r>
       <r>  230.0755    0.0000 </r>
       <r>  231.1351    0.0000 </r>
       <r>  231.4022    0.0000 </r>
       <r>  232.3357    0.0000 </r>
       <r>  232.7923    0.0000 </r>
       <r>  233.3295    0.0000 </r>
       <r>  236.9195    0.0000 </r>
       <r>  238.6381    0.0000 </r>
       <r>  240.0677    0.0000 </r>
       <r>  240.8501    0.0000 </r>
       <r>  241.7642    0.0000 </r>
       <r>  243.1606    0.0000 </r>
       <r>  243.5444    0.0000 </r>
       <r>  243.9070    0.0000 </r>
       <r>  246.0853    0.0000 </r>
       <r>  247.2832    0.0000 </r>
       <r>  250.7300    0.0000 </r>
       <r>  253.8881    0.0000 </r>
       <r>  253.8999    0.0000 </r>
       <r>  254.9675    0.0000 </r>
       <r>  255.3505    0.0000 </r>
       <r>  255.8497    0.0000 </r>
       <r>  256.1507    0.0000 </r>
       <r>  257.9568    0.0000 </r>
       <r>  261.9271    0.0000 </r>
       <r>  262.5870    0.0000 </r>
       <r>  263.3835    0.0000 </r>
      </set>
      <set comment="kpoint 7">
       <r>   -7.2849    1.0000 </r>
       <r>   -1.5632    1.0000 </r>
       <r>    2.4342    1.0000 </r>
       <r>    2.4342    1.0000 </r>
       <r>   11.6346    0.0000 </r>
       <r>   16.3073    0.0000 </r>
       <r>   24.8584    0.0000 </r>
       <r>   24.8584    0.0000 </r>
       <r>   27.7276    0.0000 </r>
       <r>   34.0058    0.0000 </r>
       <r>   40.4761    0.0000 </r>
       <r>   40.4761    0.0000 </r>
       <r>   45.5636    0.0000 </r>
       <r>   46.3443    0.0000 </r>
       <r>   53.9104    0.0000 </r>
       <r>   55.7089    0.0000 </r>
       <r>   55.7089    0.0000 </r>
       <r>   56.6366    0.0000 </r>
       <r>   57.0087    0.0000 </r>
       <r>   57.0087    0.0000 </r>
       <r>   57.4904    0.0000 </r>
       <r>   64.1175    0.0000 </r>
       <r>   73.8737    0.0000 </r>
       <r>   73.8737    0.0000 </r>
       <r>   79.7105    0.0000 </r>
       <r>   79.7105    0.0000 </r>
       <r>   82.5538    0.0000 </r>
       <r>   83.7316    0.0000 </r>
       <r>   87.6887    0.0000 </r>
       <r>   89.6518    0.0000 </r>
       <r>   94.1682    0.0000 </r>
       <r>   99.7631    0.0000 </r>
       <r>  100.2855    0.0000 </r>
       <r>  100.4498    0.0000 </r>
       <r>  100.4498    0.0000 </r>
       <r>  102.3799    0.0000 </r>
       <r>  102.8534    0.0000 </r>
       <r>  102.8534    0.0000 </r>
       <r>  104.6058    0.0000 </r>
       <r>  105.9795    0.0000 </r>
       <r>  116.9142    0.0000 </r>
       <r>  119.2941    0.0000 </r>
       <r>  121.9171    0.0000 </r>
       <r>  121.9171    0.0000 </r>
       <r>  127.6255    0.0000 </r>
       <r>  127.6255    0.0000 </r>
       <r>  133.8574    0.0000 </r>
       <r>  134.4216    0.0000 </r>
       <r>  138.3415    0.0000 </r>
       <r>  138.3415    0.0000 </r>
       <r>  141.0476    0.0000 </r>
       <r>  141.0476    0.0000 </r>
       <r>  144.4585    0.0000 </r>
       <r>  144.8714    0.0000 </r>
       <r>  146.2099    0.0000 </r>
       <r>  147.3563    0.0000 </r>
       <r>  147.5771    0.0000 </r>
       <r>  147.5771    0.0000 </r>
       <r>  149.0210    0.0000 </r>
       <r>  149.0210    0.0000 </r>
       <r>  149.5681    0.0000 </r>
       <r>  149.7144    0.0000 </r>
       <r>  152.8800    0.0000 </r>
       <r>  158.8472    0.0000 </r>
       <r>  172.6341    0.0000 </r>
       <r>  172.7024    0.0000 </r>
       <r>  172.7024    0.0000 </r>
       <r>  175.1482    0.0000 </r>
       <r>  176.3880    0.0000 </r>
       <r>  176.3880    0.0000 </r>
       <r>  177.8239    0.0000 </r>
       <r>  177.8239    0.0000 </r>
       <r>  178.7429    0.0000 </r>
       <r>  179.1877    0.0000 </r>
       <r>  179.6611    0.0000 </r>
       <r>  180.4694    0.0000 </r>
       <r>  180.4694    0.0000 </r>
       <r>  181.9598    0.0000 </r>
       <r>  184.7939    0.0000 </r>
       <r>  185.8811    0.0000 </r>
       <r>  187.0184    0.0000 </r>
       <r>  187.0184    0.0000 </r>
       <r>  188.2110    0.0000 </r>
       <r>  188.6110    0.0000 </r>
       <r>  191.5502    0.0000 </r>
       <r>  192.0704    0.0000 </r>
       <r>  194.6968    0.0000 </r>
       <r>  194.6968    0.0000 </r>
       <r>  194.9196    0.0000 </r>
       <r>  194.9196    0.0000 </r>
       <r>  197.9111    0.0000 </r>
       <r>  200.8866    0.0000 </r>
       <r>  210.7758    0.0000 </r>
       <r>  210.7758    0.0000 </r>
       <r>  221.3096    0.0000 </r>
       <r>  221.4030    0.0000 </r>
       <r>  221.4030    0.0000 </r>
       <r>  222.6711    0.0000 </r>
       <r>  225.2717    0.0000 </r>
       <r>  225.6132    0.0000 </r>
       <r>  225.6132    0.0000 </r>
       <r>  226.7012    0.0000 </r>
       <r>  226.9551    0.0000 </r>
       <r>  226.9551    0.0000 </r>
       <r>  227.3990    0.0000 </r>
       <r>  227.7116    0.0000 </r>
       <r>  228.3285    0.0000 </r>
       <r>  230.5657    0.0000 </r>
       <r>  238.0118    0.0000 </r>
       <r>  238.0118    0.0000 </r>
       <r>  238.5822    0.0000 </r>
       <r>  238.9875    0.0000 </r>
       <r>  239.4011    0.0000 </r>
       <r>  239.4011    0.0000 </r>
       <r>  242.6196    0.0000 </r>
       <r>  243.1140    0.0000 </r>
       <r>  259.4643    0.0000 </r>
       <r>  262.8714    0.0000 </r>
       <r>  262.8714    0.0000 </r>
       <r>  265.6890    0.0000 </r>
       <r>  266.1233    0.0000 </r>
       <r>  267.0243    0.0000 </r>
       <r>  267.0243    0.0000 </r>
       <r>  269.3307    0.0000 </r>
       <r>  272.6381    0.0000 </r>
       <r>  273.0218    0.0000 </r>
       <r>  276.5055    0.0000 </r>
       <r>  276.5055    0.0000 </r>
      </set>
      <set comment="kpoint 8">
       <r>   -6.9844    1.0000 </r>
       <r>   -0.2737    1.0000 </r>
       <r>    0.4153    1.0000 </r>
       <r>    0.8552    1.0000 </r>
       <r>   16.7503    0.0000 </r>
       <r>   20.2733    0.0000 </r>
       <r>   21.5671    0.0000 </r>
       <r>   21.5972    0.0000 </r>
       <r>   26.2734    0.0000 </r>
       <r>   32.4244    0.0000 </r>
       <r>   36.4249    0.0000 </r>
       <r>   40.1373    0.0000 </r>
       <r>   49.7297    0.0000 </r>
       <r>   50.3386    0.0000 </r>
       <r>   50.9269    0.0000 </r>
       <r>   53.3441    0.0000 </r>
       <r>   54.8828    0.0000 </r>
       <r>   56.6284    0.0000 </r>
       <r>   62.6389    0.0000 </r>
       <r>   63.2566    0.0000 </r>
       <r>   63.3063    0.0000 </r>
       <r>   64.5194    0.0000 </r>
       <r>   71.7808    0.0000 </r>
       <r>   74.1862    0.0000 </r>
       <r>   74.3259    0.0000 </r>
       <r>   75.3658    0.0000 </r>
       <r>   75.8918    0.0000 </r>
       <r>   79.4916    0.0000 </r>
       <r>   88.5433    0.0000 </r>
       <r>   91.2534    0.0000 </r>
       <r>   91.5560    0.0000 </r>
       <r>   92.1141    0.0000 </r>
       <r>   97.2292    0.0000 </r>
       <r>  100.0678    0.0000 </r>
       <r>  102.7581    0.0000 </r>
       <r>  104.7315    0.0000 </r>
       <r>  105.2659    0.0000 </r>
       <r>  106.2763    0.0000 </r>
       <r>  117.6769    0.0000 </r>
       <r>  119.1750    0.0000 </r>
       <r>  119.1780    0.0000 </r>
       <r>  120.2972    0.0000 </r>
       <r>  120.3091    0.0000 </r>
       <r>  122.9357    0.0000 </r>
       <r>  127.1196    0.0000 </r>
       <r>  127.7424    0.0000 </r>
       <r>  128.0459    0.0000 </r>
       <r>  128.1758    0.0000 </r>
       <r>  134.7527    0.0000 </r>
       <r>  136.0963    0.0000 </r>
       <r>  136.3067    0.0000 </r>
       <r>  137.9308    0.0000 </r>
       <r>  138.3827    0.0000 </r>
       <r>  139.5937    0.0000 </r>
       <r>  143.9782    0.0000 </r>
       <r>  145.6669    0.0000 </r>
       <r>  152.5250    0.0000 </r>
       <r>  152.8288    0.0000 </r>
       <r>  153.3472    0.0000 </r>
       <r>  153.9284    0.0000 </r>
       <r>  156.6376    0.0000 </r>
       <r>  158.1111    0.0000 </r>
       <r>  158.6552    0.0000 </r>
       <r>  159.5373    0.0000 </r>
       <r>  160.7843    0.0000 </r>
       <r>  160.8152    0.0000 </r>
       <r>  165.2894    0.0000 </r>
       <r>  168.1355    0.0000 </r>
       <r>  173.1100    0.0000 </r>
       <r>  174.2978    0.0000 </r>
       <r>  179.3646    0.0000 </r>
       <r>  180.8585    0.0000 </r>
       <r>  180.8936    0.0000 </r>
       <r>  180.9388    0.0000 </r>
       <r>  182.2503    0.0000 </r>
       <r>  182.4868    0.0000 </r>
       <r>  182.6068    0.0000 </r>
       <r>  182.6699    0.0000 </r>
       <r>  183.2699    0.0000 </r>
       <r>  183.4668    0.0000 </r>
       <r>  183.5801    0.0000 </r>
       <r>  184.8283    0.0000 </r>
       <r>  190.9143    0.0000 </r>
       <r>  193.1391    0.0000 </r>
       <r>  197.6835    0.0000 </r>
       <r>  198.6487    0.0000 </r>
       <r>  200.8952    0.0000 </r>
       <r>  201.1703    0.0000 </r>
       <r>  201.2171    0.0000 </r>
       <r>  202.1377    0.0000 </r>
       <r>  202.3127    0.0000 </r>
       <r>  204.7368    0.0000 </r>
       <r>  208.8813    0.0000 </r>
       <r>  209.8220    0.0000 </r>
       <r>  209.9289    0.0000 </r>
       <r>  210.5714    0.0000 </r>
       <r>  210.8985    0.0000 </r>
       <r>  210.9527    0.0000 </r>
       <r>  212.6503    0.0000 </r>
       <r>  214.4753    0.0000 </r>
       <r>  220.9811    0.0000 </r>
       <r>  222.8240    0.0000 </r>
       <r>  226.6006    0.0000 </r>
       <r>  226.7455    0.0000 </r>
       <r>  228.1684    0.0000 </r>
       <r>  228.3168    0.0000 </r>
       <r>  230.9568    0.0000 </r>
       <r>  232.7588    0.0000 </r>
       <r>  244.3775    0.0000 </r>
       <r>  245.7155    0.0000 </r>
       <r>  246.8349    0.0000 </r>
       <r>  249.6120    0.0000 </r>
       <r>  250.8706    0.0000 </r>
       <r>  250.9386    0.0000 </r>
       <r>  253.7689    0.0000 </r>
       <r>  254.2455    0.0000 </r>
       <r>  263.6057    0.0000 </r>
       <r>  263.9446    0.0000 </r>
       <r>  264.2116    0.0000 </r>
       <r>  267.0737    0.0000 </r>
       <r>  267.6511    0.0000 </r>
       <r>  267.8727    0.0000 </r>
       <r>  269.0693    0.0000 </r>
       <r>  269.2002    0.0000 </r>
       <r>  269.8796    0.0000 </r>
       <r>  270.4753    0.0000 </r>
       <r>  271.2346    0.0000 </r>
       <r>  271.4890    0.0000 </r>
      </set>
     </set>
    </set>
   </array>
  </eigenvalues>
  <separator name="orbital magnetization" >
   <v name="MAGDIPOLOUT">      0.00000000      0.00000000      0.00000000</v>
  </separator>
  <dos>
   <i name="efermi">      8.02801947 </i>
   <total>
    <array>
     <dimension dim="1">gridpoints</dimension>
     <dimension dim="2">spin</dimension>
     <field>energy</field>
     <field>total</field>
     <field>integrated</field>
     <set>
      <set comment="spin 1">
       <r>   -27.2402     0.0000     0.0000 </r>
       <r>   -26.1795     0.0000     0.0000 </r>
       <r>   -25.1188     0.0000     0.0000 </r>
       <r>   -24.0581     0.0000     0.0000 </r>
       <r>   -22.9974     0.0000     0.0000 </r>
       <r>   -21.9367     0.0000     0.0000 </r>
       <r>   -20.8760     0.0000     0.0000 </r>
       <r>   -19.8153     0.0000     0.0000 </r>
       <r>   -18.7546     0.0000     0.0000 </r>
       <r>   -17.6939     0.0000     0.0000 </r>
       <r>   -16.6332     0.0000     0.0000 </r>
       <r>   -15.5725     0.0000     0.0000 </r>
       <r>   -14.5118     0.0000     0.0000 </r>
       <r>   -13.4511     0.0000     0.0000 </r>
       <r>   -12.3904     0.0589     0.0625 </r>
       <r>   -11.3297     0.1023     0.1710 </r>
       <r>   -10.2690     0.1178     0.4375 </r>
       <r>    -9.2083     0.0726     0.5145 </r>
       <r>    -8.1476     0.7578     1.4913 </r>
       <r>    -7.0869     0.1850     1.8837 </r>
       <r>    -6.0262     0.0000     2.0000 </r>
       <r>    -4.9655     0.0000     2.0000 </r>
       <r>    -3.9048     0.0000     2.0000 </r>
       <r>    -2.8441     0.2357     2.2500 </r>
       <r>    -1.7835     0.0002     2.2502 </r>
       <r>    -0.7228     0.7071     3.1875 </r>
       <r>     0.3379     0.3697     3.5796 </r>
       <r>     1.3986     0.1178     3.8125 </r>
       <r>     2.4593     1.4043     5.3020 </r>
       <r>     3.5200     0.1314     5.5769 </r>
       <r>     4.5807     0.2357     6.5625 </r>
       <r>     5.6414     0.7071     7.3125 </r>
       <r>     6.7021     0.4714     7.8125 </r>
       <r>     7.7628     0.1768     8.0000 </r>
       <r>     8.8235     0.0000     8.0000 </r>
       <r>     9.8842     0.0000     8.0000 </r>
       <r>    10.9449     0.0000     8.0000 </r>
       <r>    12.0056     0.1768     8.1875 </r>
       <r>    13.0663     0.0000     8.1875 </r>
       <r>    14.1270     0.1177     8.3124 </r>
       <r>    15.1877     0.7071     9.0625 </r>
       <r>    16.2484     0.2126     9.2880 </r>
       <r>    17.3091     0.8942    10.3860 </r>
       <r>    18.3698     0.4716    11.3752 </r>
       <r>    19.4305     0.2354    11.7497 </r>
       <r>    20.4912     1.2446    13.0702 </r>
       <r>    21.5519     1.2195    14.6685 </r>
       <r>    22.6126     0.2357    15.6250 </r>
       <r>    23.6733     0.0000    15.6250 </r>
       <r>    24.7340     0.0139    15.6397 </r>
       <r>    25.7947     0.1178    16.1250 </r>
       <r>    26.8554     0.2803    16.4223 </r>
       <r>    27.9161     0.1761    17.1868 </r>
       <r>    28.9768     0.2581    17.4613 </r>
       <r>    30.0375     0.0000    17.6875 </r>
       <r>    31.0982     0.9428    18.6875 </r>
       <r>    32.1589     0.0589    18.7500 </r>
       <r>    33.2196     0.2920    19.0598 </r>
       <r>    34.2803     1.2374    20.9375 </r>
       <r>    35.3410     0.4796    21.4462 </r>
       <r>    36.4017     0.0438    22.2965 </r>
       <r>    37.4624     0.0243    22.4008 </r>
       <r>    38.5231     0.0000    22.5000 </r>
       <r>    39.5838     0.7071    23.2500 </r>
       <r>    40.6445     0.7816    24.0791 </r>
       <r>    41.7052     0.0031    24.2532 </r>
       <r>    42.7659     0.0635    24.8174 </r>
       <r>    43.8266     0.6466    25.6234 </r>
       <r>    44.8873     0.0000    25.9375 </r>
       <r>    45.9480     0.3926    26.3540 </r>
       <r>    47.0087     0.1768    26.8125 </r>
       <r>    48.0694     0.0010    26.8136 </r>
       <r>    49.1301     0.4714    28.3125 </r>
       <r>    50.1908     0.5792    28.9268 </r>
       <r>    51.2515     0.1575    29.7296 </r>
       <r>    52.3122     0.3514    30.8103 </r>
       <r>    53.3729     1.0204    31.8948 </r>
       <r>    54.4336     0.1768    32.3125 </r>
       <r>    55.4943     0.1183    32.4380 </r>
       <r>    56.5550     0.0396    32.8545 </r>
       <r>    57.6157     0.5236    33.6803 </r>
       <r>    58.6764     1.7635    35.5580 </r>
       <r>    59.7371     0.7072    36.8126 </r>
       <r>    60.7978     0.2357    37.1875 </r>
       <r>    61.8585     0.1873    37.3862 </r>
       <r>    62.9192     0.1178    37.5625 </r>
       <r>    63.9799     0.7065    38.3119 </r>
       <r>    65.0406     1.2963    39.8750 </r>
       <r>    66.1013     0.4714    40.3750 </r>
       <r>    67.1620     1.3694    41.8276 </r>
       <r>    68.2227     0.7057    42.6235 </r>
       <r>    69.2834     0.0000    42.6250 </r>
       <r>    70.3441     0.5853    43.2458 </r>
       <r>    71.4048     0.7317    44.1511 </r>
       <r>    72.4655     0.1178    44.5000 </r>
       <r>    73.5262     0.9429    45.5002 </r>
       <r>    74.5869     0.7660    46.5625 </r>
       <r>    75.6476     1.4037    48.0514 </r>
       <r>    76.7083     0.3941    48.6056 </r>
       <r>    77.7690     0.1181    49.0628 </r>
       <r>    78.8297     0.1178    49.4375 </r>
       <r>    79.8904     1.4465    50.9719 </r>
       <r>    80.9511     0.3067    51.6378 </r>
       <r>    82.0118     0.4714    52.7500 </r>
       <r>    83.0725     0.8840    53.6877 </r>
       <r>    84.1332     0.4080    55.1202 </r>
       <r>    85.1939     0.0191    55.1452 </r>
       <r>    86.2546     1.4730    56.9374 </r>
       <r>    87.3153     0.9428    57.9375 </r>
       <r>    88.3760     0.4135    58.3761 </r>
       <r>    89.4367     0.9430    59.5002 </r>
       <r>    90.4974     0.0000    59.6875 </r>
       <r>    91.5581     0.6499    60.3768 </r>
       <r>    92.6188     0.8249    61.3750 </r>
       <r>    93.6795     0.2357    61.6250 </r>
       <r>    94.7402     0.6480    62.3123 </r>
       <r>    95.8009     0.9528    63.3231 </r>
       <r>    96.8616     0.1603    63.7325 </r>
       <r>    97.9223     1.8412    65.8905 </r>
       <r>    98.9830     0.2762    66.8555 </r>
       <r>   100.0437     0.2200    67.1709 </r>
       <r>   101.1044     1.1010    68.6053 </r>
       <r>   102.1651     1.2631    70.0273 </r>
       <r>   103.2258     0.7013    70.9938 </r>
       <r>   104.2865     0.4629    71.4910 </r>
       <r>   105.3472     1.6127    73.4606 </r>
       <r>   106.4079     0.9985    74.8091 </r>
       <r>   107.4686     0.4706    75.4367 </r>
       <r>   108.5293     0.2357    75.6875 </r>
       <r>   109.5900     0.8251    76.5627 </r>
       <r>   110.6507     0.1961    76.8955 </r>
       <r>   111.7114     0.0546    77.1829 </r>
       <r>   112.7721     1.0606    78.7500 </r>
       <r>   113.8328     0.8831    79.6867 </r>
       <r>   114.8935     1.2389    81.0641 </r>
       <r>   115.9542     0.7643    82.0607 </r>
       <r>   117.0149     0.3883    82.6619 </r>
       <r>   118.0756     0.5892    84.0625 </r>
       <r>   119.1363     0.3051    84.3861 </r>
       <r>   120.1970     0.1820    84.9430 </r>
       <r>   121.2577     2.1212    87.5000 </r>
       <r>   122.3184     0.3535    87.8750 </r>
       <r>   123.3791     0.5117    88.4177 </r>
       <r>   124.4398     0.5778    89.3004 </r>
       <r>   125.5005     0.3699    90.3299 </r>
       <r>   126.5612     0.6434    91.8074 </r>
       <r>   127.6219     0.7765    92.8861 </r>
       <r>   128.6826     1.0083    94.5070 </r>
       <r>   129.7433     0.0000    95.0625 </r>
       <r>   130.8040     0.9432    96.1254 </r>
       <r>   131.8647     1.8451    98.5821 </r>
       <r>   132.9254     0.7071    99.6250 </r>
       <r>   133.9861     0.7109   100.3790 </r>
       <r>   135.0468     0.5303   101.2500 </r>
       <r>   136.1075     0.0741   101.3286 </r>
       <r>   137.1682     0.1178   101.8750 </r>
       <r>   138.2289     0.3083   102.2020 </r>
       <r>   139.2896     0.9428   104.5000 </r>
       <r>   140.3503     1.4012   105.9863 </r>
       <r>   141.4110     0.6481   106.8125 </r>
       <r>   142.4717     0.8268   107.6895 </r>
       <r>   143.5324     0.0003   108.0628 </r>
       <r>   144.5931     0.6960   109.3007 </r>
       <r>   145.6538     0.9341   110.4908 </r>
       <r>   146.7145     0.9481   111.5681 </r>
       <r>   147.7752     1.2357   113.0607 </r>
       <r>   148.8359     0.0016   113.3142 </r>
       <r>   149.8966     1.2960   115.0622 </r>
       <r>   150.9573     0.1178   115.9375 </r>
       <r>   152.0180     0.7662   116.7502 </r>
       <r>   153.0787     0.9418   117.9364 </r>
       <r>   154.1394     1.5156   120.2326 </r>
       <r>   155.2001     1.1785   121.5000 </r>
       <r>   156.2608     0.2067   121.7192 </r>
       <r>   157.3215     0.1178   122.3750 </r>
       <r>   158.3822     0.5932   123.0042 </r>
       <r>   159.4429     1.2858   125.1139 </r>
       <r>   160.5036     2.3176   127.8958 </r>
       <r>   161.5643     1.2953   130.0614 </r>
       <r>   162.6250     0.0000   130.1875 </r>
       <r>   163.6857     1.8713   132.1724 </r>
       <r>   164.7464     0.6114   132.8360 </r>
       <r>   165.8071     0.9428   133.8750 </r>
       <r>   166.8678     0.0989   133.9799 </r>
       <r>   167.9285     0.4716   134.5002 </r>
       <r>   168.9892     0.1097   134.7414 </r>
       <r>   170.0499     1.1785   136.0000 </r>
       <r>   171.1106     0.8446   136.8958 </r>
       <r>   172.1713     0.4719   138.2506 </r>
       <r>   173.2320     1.5860   140.1822 </r>
       <r>   174.2927     0.0555   140.3714 </r>
       <r>   175.3534     1.0565   141.5581 </r>
       <r>   176.4141     0.8084   142.4200 </r>
       <r>   177.4748     0.7488   144.2317 </r>
       <r>   178.5355     1.5645   146.2845 </r>
       <r>   179.5962     0.8662   147.6063 </r>
       <r>   180.6569     0.5753   148.4227 </r>
       <r>   181.7176     0.9428   149.6876 </r>
       <r>   182.7783     0.6798   150.5961 </r>
       <r>   183.8390     1.5284   152.2461 </r>
       <r>   184.8997     0.5811   152.8664 </r>
       <r>   185.9604     1.3782   154.5244 </r>
       <r>   187.0211     0.8892   156.6932 </r>
       <r>   188.0818     0.1827   157.3188 </r>
       <r>   189.1424     0.9562   158.5143 </r>
       <r>   190.2031     1.1148   159.8699 </r>
       <r>   191.2638     0.1179   160.0625 </r>
       <r>   192.3245     1.1784   161.3125 </r>
       <r>   193.3852     0.5290   161.8736 </r>
       <r>   194.4459     0.4712   163.1873 </r>
       <r>   195.5066     1.8911   166.4434 </r>
       <r>   196.5673     0.0010   166.6885 </r>
       <r>   197.6280     2.0342   169.0952 </r>
       <r>   198.6887     0.8056   170.6045 </r>
       <r>   199.7494     0.4473   172.2245 </r>
       <r>   200.8101     0.9745   173.5337 </r>
       <r>   201.8708     0.2646   174.0931 </r>
       <r>   202.9315     0.7010   175.0561 </r>
       <r>   203.9922     0.4129   175.6880 </r>
       <r>   205.0529     1.3509   177.4954 </r>
       <r>   206.1136     1.3702   179.8909 </r>
       <r>   207.1743     0.0167   180.2052 </r>
       <r>   208.2350     0.0001   180.3126 </r>
       <r>   209.2957     0.3135   180.7075 </r>
       <r>   210.3564     1.1786   182.7501 </r>
       <r>   211.4171     1.6899   184.6675 </r>
       <r>   212.4778     0.2366   184.9384 </r>
       <r>   213.5385     1.4219   186.5707 </r>
       <r>   214.5992     0.5761   187.6735 </r>
       <r>   215.6599     0.7084   188.5014 </r>
       <r>   216.7206     0.3674   189.3272 </r>
       <r>   217.7813     1.6846   191.2868 </r>
       <r>   218.8420     1.2171   193.2286 </r>
       <r>   219.9027     1.0495   194.8632 </r>
       <r>   220.9634     0.6366   195.8002 </r>
       <r>   222.0241     1.4684   197.4326 </r>
       <r>   223.0848     2.0619   199.6246 </r>
       <r>   224.1455     1.1520   200.8469 </r>
       <r>   225.2062     1.6541   202.6295 </r>
       <r>   226.2669     0.7071   204.5625 </r>
       <r>   227.3276     1.7184   206.3853 </r>
       <r>   228.3883     1.4784   208.1306 </r>
       <r>   229.4490     1.4141   209.6875 </r>
       <r>   230.5097     0.3913   210.1026 </r>
       <r>   231.5704     1.6382   211.9877 </r>
       <r>   232.6311     0.2426   212.2573 </r>
       <r>   233.6918     1.5433   214.2620 </r>
       <r>   234.7525     0.0002   214.3752 </r>
       <r>   235.8132     0.7071   215.2500 </r>
       <r>   236.8739     0.2969   215.5649 </r>
       <r>   237.9346     1.2773   217.1048 </r>
       <r>   238.9953     1.4513   218.9770 </r>
       <r>   240.0560     1.1686   220.3020 </r>
       <r>   241.1167     1.2326   221.8699 </r>
       <r>   242.1774     1.8444   224.0189 </r>
       <r>   243.2381     1.7279   225.8952 </r>
       <r>   244.2988     0.5002   226.4681 </r>
       <r>   245.3595     1.4142   228.1875 </r>
       <r>   246.4202     0.7071   228.9375 </r>
       <r>   247.4809     0.6442   229.6208 </r>
       <r>   248.5416     2.3479   232.1155 </r>
       <r>   249.6023     0.7588   232.9299 </r>
       <r>   250.6630     1.0386   234.1016 </r>
       <r>   251.7237     1.1349   235.8288 </r>
       <r>   252.7844     1.1915   237.1389 </r>
       <r>   253.8451     0.2170   237.8552 </r>
       <r>   254.9058     0.2219   238.7354 </r>
       <r>   255.9665     1.5764   240.6096 </r>
       <r>   257.0272     0.7071   242.3750 </r>
       <r>   258.0879     0.6050   243.0167 </r>
       <r>   259.1486     0.1747   243.5603 </r>
       <r>   260.2093     1.0880   244.7166 </r>
       <r>   261.2700     1.4128   246.4361 </r>
       <r>   262.3307     0.9824   247.4796 </r>
       <r>   263.3914     0.8451   248.8339 </r>
       <r>   264.4521     2.1210   251.6872 </r>
       <r>   265.5128     0.7082   252.4387 </r>
       <r>   266.5735     0.1768   252.8125 </r>
       <r>   267.6342     1.2263   254.1132 </r>
       <r>   268.6949     0.0000   254.3125 </r>
       <r>   269.7556     0.4171   254.7550 </r>
       <r>   270.8163     0.1178   255.0000 </r>
       <r>   271.8770     0.2357   255.2500 </r>
       <r>   272.9377     0.1975   255.4595 </r>
       <r>   273.9984     0.0000   255.6250 </r>
       <r>   275.0591     0.0000   255.6250 </r>
       <r>   276.1198     0.0000   255.6250 </r>
       <r>   277.1805     0.3535   256.0000 </r>
       <r>   278.2412     0.0000   256.0000 </r>
       <r>   279.3019     0.0000   256.0000 </r>
       <r>   280.3626     0.0000   256.0000 </r>
       <r>   281.4233     0.0000   256.0000 </r>
       <r>   282.4840     0.0000   256.0000 </r>
       <r>   283.5447     0.0000   256.0000 </r>
       <r>   284.6054     0.0000   256.0000 </r>
       <r>   285.6661     0.0000   256.0000 </r>
       <r>   286.7268     0.0000   256.0000 </r>
       <r>   287.7875     0.0000   256.0000 </r>
       <r>   288.8482     0.0000   256.0000 </r>
       <r>   289.9089     0.0000   256.0000 </r>
       <r>   290.9696     0.0000   256.0000 </r>
      </set>
     </set>
    </array>
   </total>
  </dos>
 </calculation>
 <structure name="finalpos" >
  <crystal>
   <varray name="basis" >
    <v>       0.00000000       1.81948705       1.81948705 </v>
    <v>       1.81948705       0.00000000       1.81948705 </v>
    <v>       1.81948705       1.81948705      -0.00000000 </v>
   </varray>
   <i name="volume">     12.04694426 </i>
   <varray name="rec_basis" >
    <v>      -0.27480273       0.27480273       0.27480273 </v>
    <v>       0.27480273      -0.27480273       0.27480273 </v>
    <v>       0.27480273       0.27480273      -0.27480273 </v>
   </varray>
  </crystal>
  <varray name="positions" >
   <v>      -0.00000000      -0.00000000      -0.00000000 </v>
   <v>       0.75000000       0.75000000       0.75000000 </v>
  </varray>
 </structure>
</modeling>
