unknown system                          
           1
     0.000000    1.813001    1.813001
     1.813001    0.000000    1.813001
     1.813001    1.813001    0.000000
   B    N 
     1     1
Direct configuration=     1
   0.00000000  0.00000000  0.00000000
   0.75000000  0.75000000  0.75000000
unknown system                          
           1
     0.000000    1.815635    1.815635
     1.815635    0.000000    1.815635
     1.815635    1.815635   -0.000000
   B    N 
     1     1
Direct configuration=     2
  -0.00000000 -0.00000000 -0.00000000
   0.75000000  0.75000000  0.75000000
unknown system                          
           1
     0.000000    1.819487    1.819487
     1.819487    0.000000    1.819487
     1.819487    1.819487   -0.000000
   B    N 
     1     1
Direct configuration=     3
  -0.00000000 -0.00000000 -0.00000000
   0.75000000  0.75000000  0.75000000
