  32  32   0   0
  0.1052323E+02  0.5024860E-09  0.3850000E-09  0.2009943E-08  0.1000000E-15
  1.000000000000000E-004
  CAR 
 unknown system                          
     13.18082972    -17.91430022  301      1.68210979      1.00000000
    -17.914  0.0000E+00  0.0000E+00
    -17.811  0.0000E+00  0.0000E+00
    -17.707  0.0000E+00  0.0000E+00
    -17.603  0.0000E+00  0.0000E+00
    -17.500  0.0000E+00  0.0000E+00
    -17.396  0.0000E+00  0.0000E+00
    -17.292  0.0000E+00  0.0000E+00
    -17.189  0.0000E+00  0.0000E+00
    -17.085  0.1339E-17  0.1388E-18
    -16.981  0.1296E-12  0.1343E-13
    -16.878  0.1183E-08  0.1226E-09
    -16.774  0.1346E-05  0.1396E-06
    -16.670  0.2007E-03  0.2094E-04
    -16.567  0.4406E-02  0.4777E-03
    -16.463  0.1828E-01  0.2372E-02
    -16.360  0.2014E-01  0.4459E-02
    -16.256  0.1652E-01  0.6171E-02
    -16.152  0.3991E-01  0.1031E-01
    -16.049  0.3650E-01  0.1409E-01
    -15.945  0.8406E-02  0.1496E-01
    -15.841  0.4060E-03  0.1500E-01
    -15.738  0.2448E-02  0.1526E-01
    -15.634  0.2283E-01  0.1762E-01
    -15.530  0.4641E-01  0.2243E-01
    -15.427  0.4098E-01  0.2668E-01
    -15.323  0.1040E+00  0.3746E-01
    -15.219  0.1285E+00  0.5078E-01
    -15.116  0.3841E-01  0.5477E-01
    -15.012  0.2236E-02  0.5500E-01
    -14.908  0.2012E-04  0.5500E-01
    -14.805  0.3184E-04  0.5500E-01
    -14.701  0.2676E-02  0.5528E-01
    -14.597  0.3593E-01  0.5900E-01
    -14.494  0.9405E-01  0.6875E-01
    -14.390  0.5386E-01  0.7434E-01
    -14.287  0.7107E-02  0.7507E-01
    -14.183  0.1442E-01  0.7657E-01
    -14.079  0.4628E-01  0.8136E-01
    -13.976  0.3089E-01  0.8457E-01
    -13.872  0.4085E-02  0.8499E-01
    -13.768  0.1282E-03  0.8500E-01
    -13.665  0.3744E-02  0.8539E-01
    -13.561  0.6406E-01  0.9203E-01
    -13.457  0.2345E+00  0.1163E+00
    -13.354  0.2385E+00  0.1411E+00
    -13.250  0.7884E-01  0.1492E+00
    -13.146  0.7358E-02  0.1500E+00
    -13.043  0.3619E-02  0.1504E+00
    -12.939  0.3075E-01  0.1536E+00
    -12.835  0.4794E-01  0.1585E+00
    -12.732  0.1358E-01  0.1599E+00
    -12.628  0.6492E-03  0.1600E+00
    -12.524  0.4656E-05  0.1600E+00
    -12.421  0.4549E-08  0.1600E+00
    -12.317  0.5686E-12  0.1600E+00
    -12.214  0.1071E-16  0.1600E+00
    -12.110  0.0000E+00  0.1600E+00
    -12.006  0.0000E+00  0.1600E+00
    -11.903  0.0000E+00  0.1600E+00
    -11.799  0.0000E+00  0.1600E+00
    -11.695  0.0000E+00  0.1600E+00
    -11.592  0.0000E+00  0.1600E+00
    -11.488  0.0000E+00  0.1600E+00
    -11.384  0.0000E+00  0.1600E+00
    -11.281  0.0000E+00  0.1600E+00
    -11.177  0.0000E+00  0.1600E+00
    -11.073  0.0000E+00  0.1600E+00
    -10.970  0.0000E+00  0.1600E+00
    -10.866  0.0000E+00  0.1600E+00
    -10.762  0.0000E+00  0.1600E+00
    -10.659  0.0000E+00  0.1600E+00
    -10.555  0.0000E+00  0.1600E+00
    -10.451  0.0000E+00  0.1600E+00
    -10.348  0.0000E+00  0.1600E+00
    -10.244  0.0000E+00  0.1600E+00
    -10.141  0.0000E+00  0.1600E+00
    -10.037  0.0000E+00  0.1600E+00
     -9.933  0.0000E+00  0.1600E+00
     -9.830  0.0000E+00  0.1600E+00
     -9.726  0.0000E+00  0.1600E+00
     -9.622  0.0000E+00  0.1600E+00
     -9.519  0.0000E+00  0.1600E+00
     -9.415  0.0000E+00  0.1600E+00
     -9.311  0.0000E+00  0.1600E+00
     -9.208  0.0000E+00  0.1600E+00
     -9.104  0.0000E+00  0.1600E+00
     -9.000  0.0000E+00  0.1600E+00
     -8.897  0.0000E+00  0.1600E+00
     -8.793  0.0000E+00  0.1600E+00
     -8.689  0.0000E+00  0.1600E+00
     -8.586  0.0000E+00  0.1600E+00
     -8.482  0.0000E+00  0.1600E+00
     -8.378  0.0000E+00  0.1600E+00
     -8.275  0.2986E-15  0.1600E+00
     -8.171  0.1084E-10  0.1600E+00
     -8.068  0.4840E-07  0.1600E+00
     -7.964  0.2738E-04  0.1600E+00
     -7.860  0.2100E-02  0.1602E+00
     -7.757  0.2552E-01  0.1629E+00
     -7.653  0.6525E-01  0.1696E+00
     -7.549  0.4442E-01  0.1742E+00
     -7.446  0.7283E-02  0.1750E+00
     -7.342  0.4930E-02  0.1755E+00
     -7.238  0.4520E-01  0.1802E+00
     -7.135  0.9476E-01  0.1900E+00
     -7.031  0.7113E-01  0.1974E+00
     -6.927  0.5223E-01  0.2028E+00
     -6.824  0.1968E-01  0.2048E+00
     -6.720  0.1624E-02  0.2050E+00
     -6.616  0.2013E-02  0.2052E+00
     -6.513  0.3617E-01  0.2090E+00
     -6.409  0.1522E+00  0.2247E+00
     -6.305  0.1569E+00  0.2410E+00
     -6.202  0.3692E-01  0.2448E+00
     -6.098  0.1666E-02  0.2450E+00
     -5.995  0.1180E-04  0.2450E+00
     -5.891  0.1139E-07  0.2450E+00
     -5.787  0.6739E-09  0.2450E+00
     -5.684  0.1063E-05  0.2450E+00
     -5.580  0.2236E-03  0.2450E+00
     -5.476  0.7267E-02  0.2458E+00
     -5.373  0.5079E-01  0.2510E+00
     -5.269  0.1167E+00  0.2631E+00
     -5.165  0.9381E-01  0.2729E+00
     -5.062  0.1986E-01  0.2749E+00
     -4.958  0.8323E-03  0.2750E+00
     -4.854  0.2167E-02  0.2752E+00
     -4.751  0.4112E-01  0.2795E+00
     -4.647  0.1409E+00  0.2941E+00
     -4.543  0.1018E+00  0.3046E+00
     -4.440  0.2412E-01  0.3071E+00
     -4.336  0.3352E-02  0.3075E+00
     -4.232  0.1919E-02  0.3077E+00
     -4.129  0.1668E-01  0.3094E+00
     -4.025  0.3586E-01  0.3131E+00
     -3.921  0.9820E-01  0.3233E+00
     -3.818  0.1430E+00  0.3381E+00
     -3.714  0.8501E-01  0.3470E+00
     -3.611  0.1082E+00  0.3582E+00
     -3.507  0.5597E-01  0.3640E+00
     -3.403  0.1325E-01  0.3653E+00
     -3.300  0.2304E-01  0.3677E+00
     -3.196  0.3353E-01  0.3712E+00
     -3.092  0.4679E-01  0.3761E+00
     -2.989  0.1650E+00  0.3932E+00
     -2.885  0.2843E+00  0.4226E+00
     -2.781  0.1124E+00  0.4343E+00
     -2.678  0.2913E-01  0.4373E+00
     -2.574  0.5206E-01  0.4427E+00
     -2.470  0.2971E-01  0.4458E+00
     -2.367  0.2696E-01  0.4486E+00
     -2.263  0.1303E-01  0.4499E+00
     -2.159  0.8736E-02  0.4508E+00
     -2.056  0.5658E-01  0.4567E+00
     -1.952  0.6955E-01  0.4639E+00
     -1.848  0.6632E-01  0.4708E+00
     -1.745  0.2181E+00  0.4934E+00
     -1.641  0.1800E+00  0.5120E+00
     -1.538  0.2809E-01  0.5149E+00
     -1.434  0.5519E-02  0.5155E+00
     -1.330  0.3602E-01  0.5192E+00
     -1.227  0.5443E-01  0.5249E+00
     -1.123  0.4424E-01  0.5295E+00
     -1.019  0.5709E-01  0.5354E+00
     -0.916  0.3918E-01  0.5394E+00
     -0.812  0.1007E-01  0.5405E+00
     -0.708  0.3660E-01  0.5443E+00
     -0.605  0.4658E-01  0.5491E+00
     -0.501  0.2244E-01  0.5514E+00
     -0.397  0.2697E-01  0.5542E+00
     -0.294  0.3413E-01  0.5578E+00
     -0.190  0.1092E+00  0.5691E+00
     -0.086  0.1417E+00  0.5838E+00
      0.017  0.8612E-01  0.5927E+00
      0.121  0.3926E-01  0.5968E+00
      0.225  0.9623E-02  0.5978E+00
      0.328  0.4060E-01  0.6020E+00
      0.432  0.1138E+00  0.6138E+00
      0.535  0.1038E+00  0.6245E+00
      0.639  0.4700E-01  0.6294E+00
      0.743  0.1915E-01  0.6314E+00
      0.846  0.2579E-01  0.6341E+00
      0.950  0.8582E-02  0.6350E+00
      1.054  0.1114E-02  0.6351E+00
      1.157  0.1053E-01  0.6362E+00
      1.261  0.2588E-01  0.6388E+00
      1.365  0.1049E-01  0.6399E+00
      1.468  0.6640E-03  0.6400E+00
      1.572  0.5928E-05  0.6400E+00
      1.676  0.6908E-08  0.6400E+00
      1.779  0.1005E-11  0.6400E+00
      1.883  0.2142E-16  0.6400E+00
      1.987  0.0000E+00  0.6400E+00
      2.090  0.0000E+00  0.6400E+00
      2.194  0.0000E+00  0.6400E+00
      2.298  0.0000E+00  0.6400E+00
      2.401  0.0000E+00  0.6400E+00
      2.505  0.0000E+00  0.6400E+00
      2.608  0.0000E+00  0.6400E+00
      2.712  0.0000E+00  0.6400E+00
      2.816  0.0000E+00  0.6400E+00
      2.919  0.0000E+00  0.6400E+00
      3.023  0.0000E+00  0.6400E+00
      3.127  0.0000E+00  0.6400E+00
      3.230  0.0000E+00  0.6400E+00
      3.334  0.0000E+00  0.6400E+00
      3.438  0.0000E+00  0.6400E+00
      3.541  0.0000E+00  0.6400E+00
      3.645  0.0000E+00  0.6400E+00
      3.749  0.0000E+00  0.6400E+00
      3.852  0.0000E+00  0.6400E+00
      3.956  0.0000E+00  0.6400E+00
      4.060  0.0000E+00  0.6400E+00
      4.163  0.0000E+00  0.6400E+00
      4.267  0.0000E+00  0.6400E+00
      4.371  0.0000E+00  0.6400E+00
      4.474  0.0000E+00  0.6400E+00
      4.578  0.0000E+00  0.6400E+00
      4.681  0.0000E+00  0.6400E+00
      4.785  0.1205E-16  0.6400E+00
      4.889  0.7518E-12  0.6400E+00
      4.992  0.5828E-08  0.6400E+00
      5.096  0.5706E-05  0.6400E+00
      5.200  0.7444E-03  0.6401E+00
      5.303  0.1448E-01  0.6416E+00
      5.407  0.5183E-01  0.6470E+00
      5.511  0.4384E-01  0.6515E+00
      5.614  0.9666E-02  0.6525E+00
      5.718  0.7151E-02  0.6532E+00
      5.822  0.3452E-01  0.6568E+00
      5.925  0.5690E-01  0.6627E+00
      6.029  0.2079E-01  0.6649E+00
      6.133  0.1777E-02  0.6651E+00
      6.236  0.9390E-02  0.6660E+00
      6.340  0.3441E-01  0.6696E+00
      6.444  0.7987E-01  0.6779E+00
      6.547  0.9741E-01  0.6880E+00
      6.651  0.5178E-01  0.6933E+00
      6.755  0.3391E-01  0.6968E+00
      6.858  0.1061E-01  0.6979E+00
      6.962  0.3844E-01  0.7019E+00
      7.065  0.7177E-01  0.7094E+00
      7.169  0.3296E-01  0.7128E+00
      7.273  0.2667E-01  0.7156E+00
      7.376  0.4857E-01  0.7206E+00
      7.480  0.8063E-01  0.7289E+00
      7.584  0.5178E-01  0.7343E+00
      7.687  0.7560E-01  0.7421E+00
      7.791  0.4681E-01  0.7470E+00
      7.895  0.5588E-02  0.7476E+00
      7.998  0.1820E-01  0.7495E+00
      8.102  0.6780E-01  0.7565E+00
      8.206  0.5011E-01  0.7617E+00
      8.309  0.7634E-02  0.7625E+00
      8.413  0.2164E-03  0.7625E+00
      8.517  0.9540E-06  0.7625E+00
      8.620  0.9169E-09  0.7625E+00
      8.724  0.7507E-06  0.7625E+00
      8.828  0.2071E-03  0.7625E+00
      8.931  0.7765E-02  0.7633E+00
      9.035  0.4523E-01  0.7680E+00
      9.138  0.7347E-01  0.7756E+00
      9.242  0.1198E+00  0.7880E+00
      9.346  0.8024E-01  0.7964E+00
      9.449  0.1588E-01  0.7980E+00
      9.553  0.3201E-01  0.8013E+00
      9.657  0.4652E-01  0.8061E+00
      9.760  0.3192E-01  0.8095E+00
      9.864  0.3568E-01  0.8131E+00
      9.968  0.1638E-01  0.8148E+00
     10.071  0.1454E-02  0.8150E+00
     10.175  0.1966E-04  0.8150E+00
     10.279  0.1146E-04  0.8150E+00
     10.382  0.9911E-03  0.8151E+00
     10.486  0.1253E-01  0.8164E+00
     10.590  0.2551E-01  0.8190E+00
     10.693  0.8727E-02  0.8200E+00
     10.797  0.4720E-03  0.8200E+00
     10.901  0.3653E-05  0.8200E+00
     11.004  0.1549E-05  0.8200E+00
     11.108  0.2951E-03  0.8200E+00
     11.211  0.8173E-02  0.8209E+00
     11.315  0.3775E-01  0.8248E+00
     11.419  0.3769E-01  0.8287E+00
     11.522  0.1157E-01  0.8299E+00
     11.626  0.3181E-02  0.8302E+00
     11.730  0.2647E-01  0.8330E+00
     11.833  0.5089E-01  0.8382E+00
     11.937  0.1613E-01  0.8399E+00
     12.041  0.7882E-03  0.8400E+00
     12.144  0.5363E-05  0.8400E+00
     12.248  0.4726E-08  0.8400E+00
     12.352  0.5179E-12  0.8400E+00
     12.455  0.0000E+00  0.8400E+00
     12.559  0.0000E+00  0.8400E+00
     12.663  0.0000E+00  0.8400E+00
     12.766  0.0000E+00  0.8400E+00
     12.870  0.0000E+00  0.8400E+00
     12.974  0.0000E+00  0.8400E+00
     13.077  0.0000E+00  0.8400E+00
     13.181  0.0000E+00  0.8400E+00
