<?xml version="1.0" encoding="ISO-8859-1"?>
<modeling>
 <generator>
  <i name="program" type="string">vasp </i>
  <i name="version" type="string">6.2.1  </i>
  <i name="subversion" type="string">16May21 (build Oct 21 2023 21:03:18) complex                          parallel </i>
  <i name="platform" type="string">LinuxIFC </i>
  <i name="date" type="string">2023 12 15 </i>
  <i name="time" type="string">18:47:45 </i>
 </generator>
 <incar>
  <i type="int" name="ISTART">     0</i>
  <i type="string" name="PREC">Accurate</i>
  <i type="int" name="IALGO">    48</i>
  <i type="string" name="ALGO">Normal</i>
  <i type="int" name="NSIM">     4</i>
  <i type="int" name="IBRION">     2</i>
  <i name="EDIFF">      0.00000100</i>
  <i name="EDIFFG">     -0.02000000</i>
  <i type="int" name="NSW">   200</i>
  <i type="int" name="ISIF">     3</i>
  <i type="int" name="ISYM">     2</i>
  <i name="ENCUT">    550.00000000</i>
  <i name="POTIM">      0.10000000</i>
  <i type="logical" name="LPLANE"> T  </i>
  <i type="int" name="ISMEAR">     0</i>
  <i name="SIGMA">      0.10000000</i>
  <i name="PSTRESS">      0.00100000</i>
  <i type="logical" name="LWAVE"> F  </i>
  <i type="logical" name="LCHARG"> F  </i>
  <i type="int" name="IVDW">    12</i>
 </incar>
 <primitive_cell>
  <structure name="primitive_cell" >
   <crystal>
    <varray name="basis" >
     <v>      -1.25621626       0.00000000      -2.17582607 </v>
     <v>      -1.25621377       0.00000000       2.17582607 </v>
     <v>       0.00000000       3.85000000       0.00000000 </v>
    </varray>
    <i name="volume">     21.04645145 </i>
    <varray name="rec_basis" >
     <v>      -0.39802103       0.00000000      -0.22979755 </v>
     <v>      -0.39802103       0.00000000       0.22979801 </v>
     <v>       0.00000000       0.25974026       0.00000000 </v>
    </varray>
   </crystal>
   <varray name="positions" >
    <v>       0.66666671       0.33333343       0.50000000 </v>
    <v>       0.33333338       0.66666666       0.50000000 </v>
   </varray>
  </structure>
  <varray name="primitive_index" >
   <v type="int" >        1 </v>
   <v type="int" >       17 </v>
  </varray>
 </primitive_cell>
 <kpoints>
  <generation param="Gamma">
   <v type="int" name="divisions">       2        2        1 </v>
   <v name="usershift">      0.00000000       0.00000000       0.00000000 </v>
   <v name="genvec1">      0.50000000       0.00000000       0.00000000 </v>
   <v name="genvec2">      0.00000000       0.50000000       0.00000000 </v>
   <v name="genvec3">      0.00000000       0.00000000       1.00000000 </v>
   <v name="shift">      0.00000000       0.00000000       0.00000000 </v>
  </generation>
  <varray name="kpointlist" >
   <v>       0.00000000       0.00000000       0.00000000 </v>
   <v>       0.50000000       0.00000000      -0.00000000 </v>
   <v>       0.00000000       0.50000000       0.00000000 </v>
   <v>       0.50000000       0.50000000      -0.00000000 </v>
  </varray>
  <varray name="weights" >
   <v>       0.25000000 </v>
   <v>       0.25000000 </v>
   <v>       0.25000000 </v>
   <v>       0.25000000 </v>
  </varray>
 </kpoints>
 <parameters>
  <separator name="general" >
   <i type="string" name="SYSTEM">unknown system</i>
   <i type="logical" name="LCOMPAT"> F  </i>
  </separator>
  <separator name="electronic" >
   <i type="string" name="PREC">accura</i>
   <i name="ENMAX">    550.00000000</i>
   <i name="ENAUG">    627.11200000</i>
   <i name="EDIFF">      0.00000100</i>
   <i type="int" name="IALGO">    38</i>
   <i type="int" name="IWAVPR">    11</i>
   <i type="int" name="NBANDS">    84</i>
   <i type="int" name="NBANDSLOW">    -1</i>
   <i type="int" name="NBANDSHIGH">    -1</i>
   <i name="NELECT">    128.00000000</i>
   <i type="int" name="TURBO">     0</i>
   <i type="int" name="IRESTART">     0</i>
   <i type="int" name="NREBOOT">     0</i>
   <i type="int" name="NMIN">     0</i>
   <i name="EREF">      0.00000000</i>
   <separator name="electronic smearing" >
    <i type="int" name="ISMEAR">     0</i>
    <i name="SIGMA">      0.10000000</i>
    <i name="KSPACING">      0.50000000</i>
    <i type="logical" name="KGAMMA"> T  </i>
    <i type="logical" name="KBLOWUP"> T  </i>
   </separator>
   <separator name="electronic projectors" >
    <i type="logical" name="LREAL"> F  </i>
    <v name="ROPT">      0.00000000      0.00000000</v>
    <i type="int" name="LMAXPAW">  -100</i>
    <i type="int" name="LMAXMIX">     2</i>
    <i type="logical" name="NLSPLINE"> F  </i>
   </separator>
   <separator name="electronic startup" >
    <i type="int" name="ISTART">     0</i>
    <i type="int" name="ICHARG">     2</i>
    <i type="int" name="INIWAV">     1</i>
   </separator>
   <separator name="electronic spin" >
    <i type="int" name="ISPIN">     1</i>
    <i type="logical" name="LNONCOLLINEAR"> F  </i>
    <v name="MAGMOM">      1.00000000      1.00000000      1.00000000      1.00000000      1.00000000      1.00000000      1.00000000      1.00000000      1.00000000      1.00000000      1.00000000      1.00000000      1.00000000      1.00000000      1.00000000      1.00000000      1.00000000      1.00000000      1.00000000      1.00000000
      1.00000000      1.00000000      1.00000000      1.00000000      1.00000000      1.00000000      1.00000000      1.00000000      1.00000000      1.00000000      1.00000000      1.00000000</v>
    <i name="NUPDOWN">     -1.00000000</i>
    <i type="logical" name="LSORBIT"> F  </i>
    <v name="SAXIS">      0.00000000      0.00000000      1.00000000</v>
    <i type="logical" name="LSPIRAL"> F  </i>
    <v name="QSPIRAL">      0.00000000      0.00000000      0.00000000</v>
    <i type="logical" name="LZEROZ"> F  </i>
   </separator>
   <separator name="electronic exchange-correlation" >
    <i type="logical" name="LASPH"> F  </i>
    <i type="logical" name="LMETAGGA"> F  </i>
   </separator>
   <separator name="electronic convergence" >
    <i type="int" name="NELM">    60</i>
    <i type="int" name="NELMDL">    -5</i>
    <i type="int" name="NELMIN">     2</i>
    <i name="ENINI">    550.00000000</i>
    <separator name="electronic convergence detail" >
     <i type="logical" name="LDIAG"> T  </i>
     <i type="logical" name="LSUBROT"> F  </i>
     <i name="WEIMIN">      0.00100000</i>
     <i name="EBREAK">      0.00000000</i>
     <i name="DEPER">      0.30000000</i>
     <i type="int" name="NRMM">     4</i>
     <i name="TIME">      0.40000000</i>
    </separator>
   </separator>
   <separator name="electronic mixer" >
    <i name="AMIX">      0.40000000</i>
    <i name="BMIX">      1.00000000</i>
    <i name="AMIN">      0.10000000</i>
    <i name="AMIX_MAG">      1.60000000</i>
    <i name="BMIX_MAG">      1.00000000</i>
    <separator name="electronic mixer details" >
     <i type="int" name="IMIX">     4</i>
     <i type="logical" name="MIXFIRST"> F  </i>
     <i type="int" name="MAXMIX">   -45</i>
     <i name="WC">    100.00000000</i>
     <i type="int" name="INIMIX">     1</i>
     <i type="int" name="MIXPRE">     1</i>
     <i type="int" name="MREMOVE">     5</i>
    </separator>
   </separator>
   <separator name="electronic dipolcorrection" >
    <i type="logical" name="LDIPOL"> F  </i>
    <i type="logical" name="LMONO"> F  </i>
    <i type="int" name="IDIPOL">     0</i>
    <i name="EPSILON">      1.00000000</i>
    <v name="DIPOL">   -100.00000000   -100.00000000   -100.00000000</v>
    <i name="EFIELD">      0.00000000</i>
   </separator>
  </separator>
  <separator name="grids" >
   <i type="int" name="NGX">    40</i>
   <i type="int" name="NGY">    30</i>
   <i type="int" name="NGZ">   160</i>
   <i type="int" name="NGXF">    80</i>
   <i type="int" name="NGYF">    60</i>
   <i type="int" name="NGZF">   320</i>
   <i type="logical" name="ADDGRID"> F  </i>
  </separator>
  <separator name="ionic" >
   <i type="int" name="NSW">   200</i>
   <i type="int" name="IBRION">     2</i>
   <i type="int" name="MDALGO">     0</i>
   <i type="int" name="ISIF">     3</i>
   <i name="PSTRESS">      0.00100000</i>
   <i name="EDIFFG">     -0.02000000</i>
   <i type="int" name="NFREE">     1</i>
   <i name="POTIM">      0.10000000</i>
   <i name="SMASS">     -3.00000000</i>
   <i name="SCALEE">      1.00000000</i>
  </separator>
  <separator name="ionic md" >
   <i name="TEBEG">      0.00010000</i>
   <i name="TEEND">      0.00010000</i>
   <i type="int" name="NBLOCK">     1</i>
   <i type="int" name="KBLOCK">   200</i>
   <i type="int" name="NPACO">   256</i>
   <i name="APACO">     16.00000000</i>
  </separator>
  <separator name="symmetry" >
   <i type="int" name="ISYM">     2</i>
   <i name="SYMPREC">      0.00001000</i>
  </separator>
  <separator name="dos" >
   <i type="int" name="LORBIT">     0</i>
   <v name="RWIGS">     -1.00000000     -1.00000000</v>
   <i type="int" name="NEDOS">   301</i>
   <i name="EMIN">     10.00000000</i>
   <i name="EMAX">    -10.00000000</i>
   <i name="EFERMI">      0.00000000</i>
  </separator>
  <separator name="writing" >
   <i type="int" name="NWRITE">     2</i>
   <i type="logical" name="LWAVE"> F  </i>
   <i type="logical" name="LDOWNSAMPLE"> F  </i>
   <i type="logical" name="LCHARG"> F  </i>
   <i type="logical" name="LPARD"> F  </i>
   <i type="logical" name="LVTOT"> F  </i>
   <i type="logical" name="LVHAR"> F  </i>
   <i type="logical" name="LELF"> F  </i>
   <i type="logical" name="LOPTICS"> F  </i>
   <v name="STM">      0.00000000      0.00000000      0.00000000      0.00000000      0.00000000      0.00000000      0.00000000</v>
  </separator>
  <separator name="performance" >
   <i type="int" name="NPAR">     4</i>
   <i type="int" name="NSIM">     4</i>
   <i type="int" name="NBLK">    -1</i>
   <i type="logical" name="LPLANE"> T  </i>
   <i type="logical" name="LSCALAPACK"> T  </i>
   <i type="logical" name="LSCAAWARE"> F  </i>
   <i type="logical" name="LSCALU"> F  </i>
   <i type="logical" name="LASYNC"> F  </i>
   <i type="logical" name="LORBITALREAL"> F  </i>
  </separator>
  <separator name="miscellaneous" >
   <i type="int" name="IDIOT">     3</i>
   <i type="int" name="PHON_NSTRUCT">    -1</i>
   <i type="logical" name="LMUSIC"> F  </i>
   <v name="POMASS">     10.81100000     14.00100000</v>
   <v name="DARWINR">      0.00000000      0.00000000</v>
   <v name="DARWINV">      1.00000000      1.00000000</v>
   <i type="logical" name="LCORR"> T  </i>
  </separator>
  <i type="logical" name="GGA_COMPAT"> T  </i>
  <i type="logical" name="LBERRY"> F  </i>
  <i type="int" name="ICORELEVEL">     0</i>
  <i type="logical" name="LDAU"> F  </i>
  <i type="int" name="I_CONSTRAINED_M">     0</i>
  <separator name="electronic exchange-correlation" >
   <i type="string" name="GGA">--</i>
   <i type="int" name="VOSKOWN">     0</i>
   <i type="logical" name="LHFCALC"> F  </i>
   <i type="string" name="PRECFOCK"></i>
   <i type="logical" name="LSYMGRAD"> F  </i>
   <i type="logical" name="LHFONE"> F  </i>
   <i type="logical" name="LRHFCALC"> F  </i>
   <i type="logical" name="LTHOMAS"> F  </i>
   <i type="logical" name="LMODELHF"> F  </i>
   <i type="logical" name="LFOCKACE"> F  </i>
   <i name="ENCUT4O">     -1.00000000</i>
   <i type="int" name="EXXOEP">     0</i>
   <i type="int" name="FOURORBIT">     0</i>
   <i name="AEXX">      0.00000000</i>
   <i name="HFALPHA">      0.00000000</i>
   <i name="MCALPHA">      0.00000000</i>
   <i name="ALDAX">      1.00000000</i>
   <i name="AGGAX">      1.00000000</i>
   <i name="ALDAC">      1.00000000</i>
   <i name="AGGAC">      1.00000000</i>
   <i type="int" name="NKREDX">     1</i>
   <i type="int" name="NKREDY">     1</i>
   <i type="int" name="NKREDZ">     1</i>
   <i type="logical" name="SHIFTRED"> F  </i>
   <i type="logical" name="ODDONLY"> F  </i>
   <i type="logical" name="EVENONLY"> F  </i>
   <i type="int" name="LMAXFOCK">     0</i>
   <i type="int" name="NMAXFOCKAE">     0</i>
   <i type="logical" name="LFOCKAEDFT"> F  </i>
   <i name="HFSCREEN">      0.00000000</i>
   <i name="HFSCREENC">      0.00000000</i>
   <i type="int" name="NBANDSGWLOW">     0</i>
  </separator>
  <separator name="vdW DFT" >
   <i type="logical" name="LUSE_VDW"> F  </i>
   <i name="Zab_VDW">     -0.84910000</i>
   <i name="PARAM1">      0.12340000</i>
   <i name="PARAM2">      1.00000000</i>
   <i name="PARAM3">      0.00000000</i>
  </separator>
  <separator name="model GW" >
   <i type="int" name="MODEL_GW">     0</i>
   <i name="MODEL_EPS0">      6.31393711</i>
   <i name="MODEL_ALPHA">      1.00000000</i>
  </separator>
  <separator name="linear response parameters" >
   <i type="logical" name="LEPSILON"> F  </i>
   <i type="logical" name="LRPA"> F  </i>
   <i type="logical" name="LNABLA"> F  </i>
   <i type="logical" name="LVEL"> F  </i>
   <i type="int" name="KINTER">     0</i>
   <i name="CSHIFT">      0.10000000</i>
   <i name="OMEGAMAX">     -1.00000000</i>
   <i name="DEG_THRESHOLD">      0.00200000</i>
   <i name="RTIME">     -0.10000000</i>
   <i name="WPLASMAI">      0.00000000</i>
   <v name="DFIELD">      0.00000000      0.00000000      0.00000000</v>
   <v name="WPLASMA">      0.00000000      0.00000000      0.00000000      0.00000000      0.00000000      0.00000000      0.00000000      0.00000000      0.00000000</v>
  </separator>
  <separator name="orbital magnetization" >
   <i type="logical" name="NUCIND"> F  </i>
   <v name="MAGPOS">      0.00000000      0.00000000      0.00000000</v>
   <i type="logical" name="LNICSALL"> T  </i>
   <i type="logical" name="ORBITALMAG"> F  </i>
   <i type="logical" name="LMAGBLOCH"> F  </i>
   <i type="logical" name="LCHIMAG"> F  </i>
   <i type="logical" name="LGAUGE"> T  </i>
   <i type="int" name="MAGATOM">     0</i>
   <v name="MAGDIPOL">      0.00000000      0.00000000      0.00000000</v>
   <v name="AVECCONST">      0.00000000      0.00000000      0.00000000</v>
  </separator>
  <separator name="response functions" >
   <i type="logical" name="LFINITE_TEMPERATURE"> F  </i>
   <i type="logical" name="LADDER"> F  </i>
   <i type="logical" name="LRPAFORCE"> F  </i>
   <i type="logical" name="LFXC"> F  </i>
   <i type="logical" name="LHARTREE"> T  </i>
   <i type="int" name="IBSE">     0</i>
   <v type="int" name="KPOINT">    -1     0     0     0</v>
   <i type="logical" name="LTCTC"> F  </i>
   <i type="logical" name="LTCTE"> F  </i>
   <i type="logical" name="LTETE"> F  </i>
   <i type="logical" name="LTRIPLET"> F  </i>
   <i type="logical" name="LFXCEPS"> F  </i>
   <i type="logical" name="LFXHEG"> F  </i>
   <i type="int" name="NATURALO">     2</i>
   <i type="logical" name="LHOLEGF"> F  </i>
   <i type="logical" name="L2ORDER"> F  </i>
   <i type="logical" name="LDMP1"> F  </i>
   <i type="logical" name="LMP2LT"> F  </i>
   <i type="logical" name="LSMP2LT"> F  </i>
   <i type="logical" name="LGWLF"> F  </i>
   <i name="ENCUTGW">     -2.00000000</i>
   <i name="ENCUTGWSOFT">     -2.00000000</i>
   <i name="ENCUTLF">     -1.00000000</i>
   <i type="logical" name="LESF_SPLINES"> F  </i>
   <i type="int" name="LMAXMP2">    -1</i>
   <i name="SCISSOR">      0.00000000</i>
   <i type="int" name="NOMEGA">     0</i>
   <i type="int" name="NOMEGAR">     0</i>
   <i type="int" name="NBANDSGW">    -1</i>
   <i type="int" name="NBANDSO">    -1</i>
   <i type="int" name="NBANDSV">    -1</i>
   <i type="int" name="NELM">     1</i>
   <i type="int" name="NELMHF">     1</i>
   <i type="int" name="DIM">     3</i>
   <i type="int" name="IESPILON">     4</i>
   <i type="int" name="ANTIRES">     0</i>
   <i name="OMEGAMAX">    -30.00000000</i>
   <i name="OMEGAMIN">    -30.00000000</i>
   <i name="OMEGATL">   -200.00000000</i>
   <i type="int" name="OMEGAGRID">     0</i>
   <i name="CSHIFT">     -0.10000000</i>
   <i type="logical" name="LSELFENERGY"> F  </i>
   <i type="logical" name="LSPECTRAL"> F  </i>
   <i type="logical" name="LSPECTRALGW"> F  </i>
   <i type="logical" name="LSINGLES"> F  </i>
   <i type="logical" name="LFERMIGW"> F  </i>
   <i type="logical" name="ODDONLYGW"> F  </i>
   <i type="logical" name="EVENONLYGW"> F  </i>
   <i type="int" name="NKREDLFX">     1</i>
   <i type="int" name="NKREDLFY">     1</i>
   <i type="int" name="NKREDLFZ">     1</i>
   <i type="int" name="MAXMEM">  2800</i>
   <i type="int" name="TELESCOPE">     0</i>
   <i type="int" name="NTAUPAR">    -1</i>
   <i type="int" name="NOMEGAPAR">    -1</i>
   <i name="DAMP_NEWTON">      0.80000001</i>
   <i name="LAMBDA">      1.00000000</i>
  </separator>
  <separator name="External order field" >
   <i name="OFIELD_KAPPA">      0.00000000</i>
   <v name="OFIELD_K">      0.00000000      0.00000000      0.00000000</v>
   <i name="OFIELD_Q6_NEAR">      0.00000000</i>
   <i name="OFIELD_Q6_FAR">      0.00000000</i>
   <i name="OFIELD_A">      0.00000000</i>
  </separator>
 </parameters>
 <atominfo>
  <atoms>      32 </atoms>
  <types>       2 </types>
  <array name="atoms" >
   <dimension dim="1">ion</dimension>
   <field type="string">element</field>
   <field type="int">atomtype</field>
   <set>
    <rc><c>B </c><c>   1</c></rc>
    <rc><c>B </c><c>   1</c></rc>
    <rc><c>B </c><c>   1</c></rc>
    <rc><c>B </c><c>   1</c></rc>
    <rc><c>B </c><c>   1</c></rc>
    <rc><c>B </c><c>   1</c></rc>
    <rc><c>B </c><c>   1</c></rc>
    <rc><c>B </c><c>   1</c></rc>
    <rc><c>B </c><c>   1</c></rc>
    <rc><c>B </c><c>   1</c></rc>
    <rc><c>B </c><c>   1</c></rc>
    <rc><c>B </c><c>   1</c></rc>
    <rc><c>B </c><c>   1</c></rc>
    <rc><c>B </c><c>   1</c></rc>
    <rc><c>B </c><c>   1</c></rc>
    <rc><c>B </c><c>   1</c></rc>
    <rc><c>N </c><c>   2</c></rc>
    <rc><c>N </c><c>   2</c></rc>
    <rc><c>N </c><c>   2</c></rc>
    <rc><c>N </c><c>   2</c></rc>
    <rc><c>N </c><c>   2</c></rc>
    <rc><c>N </c><c>   2</c></rc>
    <rc><c>N </c><c>   2</c></rc>
    <rc><c>N </c><c>   2</c></rc>
    <rc><c>N </c><c>   2</c></rc>
    <rc><c>N </c><c>   2</c></rc>
    <rc><c>N </c><c>   2</c></rc>
    <rc><c>N </c><c>   2</c></rc>
    <rc><c>N </c><c>   2</c></rc>
    <rc><c>N </c><c>   2</c></rc>
    <rc><c>N </c><c>   2</c></rc>
    <rc><c>N </c><c>   2</c></rc>
   </set>
  </array>
  <array name="atomtypes" >
   <dimension dim="1">type</dimension>
   <field type="int">atomspertype</field>
   <field type="string">element</field>
   <field>mass</field>
   <field>valence</field>
   <field type="string">pseudopotential</field>
   <set>
    <rc><c>  16</c><c>B </c><c>     10.81100000</c><c>      3.00000000</c><c>  PAW_PBE B 06Sep2000                   </c></rc>
    <rc><c>  16</c><c>N </c><c>     14.00100000</c><c>      5.00000000</c><c>  PAW_PBE N 08Apr2002                   </c></rc>
   </set>
  </array>
 </atominfo>
 <structure name="initialpos" >
  <crystal>
   <varray name="basis" >
    <v>       5.02485991       0.00000000       0.00000000 </v>
    <v>       0.00000000       3.85000000       0.00000000 </v>
    <v>     -10.04971313       0.00000000      17.40661375 </v>
   </varray>
   <i name="volume">    336.74331276 </i>
   <varray name="rec_basis" >
    <v>       0.19901052       0.00000000       0.11489878 </v>
    <v>       0.00000000       0.25974026       0.00000000 </v>
    <v>       0.00000000       0.00000000       0.05744943 </v>
   </varray>
  </crystal>
  <varray name="positions" >
   <v>       0.16666665       0.50000000       0.08333332 </v>
   <v>       0.16666665       0.50000000       0.58333329 </v>
   <v>       0.66666666       0.50000000       0.08333332 </v>
   <v>       0.66666666       0.50000000       0.58333329 </v>
   <v>       0.16666665       0.50000000       0.20833332 </v>
   <v>       0.16666665       0.50000000       0.70833335 </v>
   <v>       0.66666666       0.50000000       0.20833332 </v>
   <v>       0.66666666       0.50000000       0.70833335 </v>
   <v>       0.16666665       0.50000000       0.33333332 </v>
   <v>       0.16666665       0.50000000       0.83333335 </v>
   <v>       0.66666666       0.50000000       0.33333332 </v>
   <v>       0.66666666       0.50000000       0.83333335 </v>
   <v>       0.16666665       0.50000000       0.45833332 </v>
   <v>       0.16666665       0.50000000       0.95833335 </v>
   <v>       0.66666666       0.50000000       0.45833332 </v>
   <v>       0.66666666       0.50000000       0.95833335 </v>
   <v>       0.33333332       0.50000000       0.04166665 </v>
   <v>       0.33333332       0.50000000       0.54166667 </v>
   <v>       0.83333335       0.50000000       0.04166665 </v>
   <v>       0.83333335       0.50000000       0.54166667 </v>
   <v>       0.33333332       0.50000000       0.16666665 </v>
   <v>       0.33333332       0.50000000       0.66666667 </v>
   <v>       0.83333335       0.50000000       0.16666665 </v>
   <v>       0.83333335       0.50000000       0.66666667 </v>
   <v>       0.33333332       0.50000000       0.29166664 </v>
   <v>       0.33333332       0.50000000       0.79166661 </v>
   <v>       0.83333335       0.50000000       0.29166664 </v>
   <v>       0.83333335       0.50000000       0.79166661 </v>
   <v>       0.33333332       0.50000000       0.41666664 </v>
   <v>       0.33333332       0.50000000       0.91666661 </v>
   <v>       0.83333335       0.50000000       0.41666664 </v>
   <v>       0.83333335       0.50000000       0.91666661 </v>
  </varray>
 </structure>
 <calculation>
  <scstep>
   <time name="dav">    2.65    2.65</time>
   <time name="total">    2.85    2.85</time>
   <energy>
    <i name="alphaZ">    270.52318341 </i>
    <i name="ewald">  -3252.25819492 </i>
    <i name="hartreedc">  -1960.53984702 </i>
    <i name="XCdc">    431.57050953 </i>
    <i name="pawpsdc">   3974.92155388 </i>
    <i name="pawaedc">  -3980.29218019 </i>
    <i name="eentropy">     -0.00000266 </i>
    <i name="bandstr">   -114.22703249 </i>
    <i name="atom">   5371.30148350 </i>
    <i name="e_fr_energy">    740.99947304 </i>
    <i name="e_wo_entrp">    740.99947570 </i>
    <i name="e_0_energy">    740.99947437 </i>
   </energy>
  </scstep>
  <scstep>
   <time name="dav">    3.16    3.16</time>
   <time name="total">    3.16    3.16</time>
   <energy>
    <i name="e_fr_energy">   -238.01931472 </i>
    <i name="e_wo_entrp">   -238.01931472 </i>
    <i name="e_0_energy">   -238.01931472 </i>
   </energy>
  </scstep>
  <scstep>
   <time name="dav">    2.96    2.96</time>
   <time name="total">    2.96    2.96</time>
   <energy>
    <i name="e_fr_energy">   -309.08809319 </i>
    <i name="e_wo_entrp">   -309.08809319 </i>
    <i name="e_0_energy">   -309.08809319 </i>
   </energy>
  </scstep>
  <scstep>
   <time name="dav">    2.95    2.95</time>
   <time name="total">    2.95    2.95</time>
   <energy>
    <i name="e_fr_energy">   -310.65302061 </i>
    <i name="e_wo_entrp">   -310.65302061 </i>
    <i name="e_0_energy">   -310.65302061 </i>
   </energy>
  </scstep>
  <scstep>
   <time name="dav">    2.90    2.90</time>
   <time name="total">    3.12    3.13</time>
   <energy>
    <i name="e_fr_energy">   -310.69658189 </i>
    <i name="e_wo_entrp">   -310.69658189 </i>
    <i name="e_0_energy">   -310.69658189 </i>
   </energy>
  </scstep>
  <scstep>
   <time name="dav">    2.82    2.82</time>
   <time name="total">    3.25    3.25</time>
   <energy>
    <i name="e_fr_energy">   -284.42232938 </i>
    <i name="e_wo_entrp">   -284.42232938 </i>
    <i name="e_0_energy">   -284.42232938 </i>
   </energy>
  </scstep>
  <scstep>
   <time name="dav">    2.81    2.81</time>
   <time name="total">    3.24    3.25</time>
   <energy>
    <i name="e_fr_energy">   -281.90321491 </i>
    <i name="e_wo_entrp">   -281.90321491 </i>
    <i name="e_0_energy">   -281.90321491 </i>
   </energy>
  </scstep>
  <scstep>
   <time name="dav">    2.88    2.88</time>
   <time name="total">    3.31    3.31</time>
   <energy>
    <i name="e_fr_energy">   -281.08837582 </i>
    <i name="e_wo_entrp">   -281.08837582 </i>
    <i name="e_0_energy">   -281.08837582 </i>
   </energy>
  </scstep>
  <scstep>
   <time name="dav">    2.87    2.87</time>
   <time name="total">    3.31    3.31</time>
   <energy>
    <i name="e_fr_energy">   -281.06800080 </i>
    <i name="e_wo_entrp">   -281.06800080 </i>
    <i name="e_0_energy">   -281.06800080 </i>
   </energy>
  </scstep>
  <scstep>
   <time name="dav">    2.93    2.93</time>
   <time name="total">    3.36    3.36</time>
   <energy>
    <i name="e_fr_energy">   -281.08163849 </i>
    <i name="e_wo_entrp">   -281.08163849 </i>
    <i name="e_0_energy">   -281.08163849 </i>
   </energy>
  </scstep>
  <scstep>
   <time name="dav">    2.90    2.90</time>
   <time name="total">    3.33    3.33</time>
   <energy>
    <i name="e_fr_energy">   -281.08318140 </i>
    <i name="e_wo_entrp">   -281.08318140 </i>
    <i name="e_0_energy">   -281.08318140 </i>
   </energy>
  </scstep>
  <scstep>
   <time name="dav">    2.82    2.82</time>
   <time name="total">    3.26    3.26</time>
   <energy>
    <i name="e_fr_energy">   -281.08326469 </i>
    <i name="e_wo_entrp">   -281.08326469 </i>
    <i name="e_0_energy">   -281.08326469 </i>
   </energy>
  </scstep>
  <scstep>
   <time name="dav">    3.02    3.02</time>
   <time name="total">    3.45    3.45</time>
   <energy>
    <i name="e_fr_energy">   -281.08326855 </i>
    <i name="e_wo_entrp">   -281.08326855 </i>
    <i name="e_0_energy">   -281.08326855 </i>
   </energy>
  </scstep>
  <scstep>
   <time name="dav">    2.33    2.34</time>
   <time name="total">    2.77    2.77</time>
   <energy>
    <i name="e_fr_energy">   -281.08327039 </i>
    <i name="e_wo_entrp">   -281.08327039 </i>
    <i name="e_0_energy">   -281.08327039 </i>
   </energy>
  </scstep>
  <scstep>
   <time name="dav">    2.13    2.14</time>
   <time name="total">    2.33    2.34</time>
   <energy>
    <i name="alphaZ">    270.52318341 </i>
    <i name="ewald">  -3252.25819492 </i>
    <i name="hartreedc">  -2352.49937286 </i>
    <i name="XCdc">    453.58372562 </i>
    <i name="pawpsdc">  14776.83594656 </i>
    <i name="pawaedc"> -14788.54922306 </i>
    <i name="eentropy">     -0.00000000 </i>
    <i name="bandstr">   -760.02081852 </i>
    <i name="atom">   5371.30148350 </i>
    <i name="e_fr_energy">   -281.08327028 </i>
    <i name="e_wo_entrp">   -281.08327028 </i>
    <i name="e_0_energy">   -281.08327028 </i>
   </energy>
  </scstep>
  <structure>
   <crystal>
    <varray name="basis" >
     <v>       5.02485991       0.00000000       0.00000000 </v>
     <v>       0.00000000       3.85000000       0.00000000 </v>
     <v>     -10.04971313       0.00000000      17.40661375 </v>
    </varray>
    <i name="volume">    336.74331276 </i>
    <varray name="rec_basis" >
     <v>       0.19901052       0.00000000       0.11489878 </v>
     <v>       0.00000000       0.25974026       0.00000000 </v>
     <v>       0.00000000       0.00000000       0.05744943 </v>
    </varray>
   </crystal>
   <varray name="positions" >
    <v>       0.16666665       0.50000000       0.08333332 </v>
    <v>       0.16666665       0.50000000       0.58333329 </v>
    <v>       0.66666666       0.50000000       0.08333332 </v>
    <v>       0.66666666       0.50000000       0.58333329 </v>
    <v>       0.16666665       0.50000000       0.20833332 </v>
    <v>       0.16666665       0.50000000       0.70833335 </v>
    <v>       0.66666666       0.50000000       0.20833332 </v>
    <v>       0.66666666       0.50000000       0.70833335 </v>
    <v>       0.16666665       0.50000000       0.33333332 </v>
    <v>       0.16666665       0.50000000       0.83333335 </v>
    <v>       0.66666666       0.50000000       0.33333332 </v>
    <v>       0.66666666       0.50000000       0.83333335 </v>
    <v>       0.16666665       0.50000000       0.45833332 </v>
    <v>       0.16666665       0.50000000       0.95833335 </v>
    <v>       0.66666666       0.50000000       0.45833332 </v>
    <v>       0.66666666       0.50000000       0.95833335 </v>
    <v>       0.33333332       0.50000000       0.04166665 </v>
    <v>       0.33333332       0.50000000       0.54166667 </v>
    <v>       0.83333335       0.50000000       0.04166665 </v>
    <v>       0.83333335       0.50000000       0.54166667 </v>
    <v>       0.33333332       0.50000000       0.16666665 </v>
    <v>       0.33333332       0.50000000       0.66666667 </v>
    <v>       0.83333335       0.50000000       0.16666665 </v>
    <v>       0.83333335       0.50000000       0.66666667 </v>
    <v>       0.33333332       0.50000000       0.29166664 </v>
    <v>       0.33333332       0.50000000       0.79166661 </v>
    <v>       0.83333335       0.50000000       0.29166664 </v>
    <v>       0.83333335       0.50000000       0.79166661 </v>
    <v>       0.33333332       0.50000000       0.41666664 </v>
    <v>       0.33333332       0.50000000       0.91666661 </v>
    <v>       0.83333335       0.50000000       0.41666664 </v>
    <v>       0.83333335       0.50000000       0.91666661 </v>
   </varray>
  </structure>
  <varray name="forces" >
   <v>      -0.00000001      -0.00000000      -0.03642246 </v>
   <v>      -0.00000001       0.00000000      -0.03642246 </v>
   <v>      -0.00000001      -0.00000000      -0.03642246 </v>
   <v>      -0.00000001       0.00000000      -0.03642246 </v>
   <v>      -0.00000001      -0.00000000      -0.03642246 </v>
   <v>      -0.00000001       0.00000000      -0.03642246 </v>
   <v>      -0.00000001      -0.00000000      -0.03642246 </v>
   <v>      -0.00000001       0.00000000      -0.03642246 </v>
   <v>      -0.00000001      -0.00000000      -0.03642246 </v>
   <v>      -0.00000001       0.00000000      -0.03642246 </v>
   <v>      -0.00000001      -0.00000000      -0.03642246 </v>
   <v>      -0.00000001       0.00000000      -0.03642246 </v>
   <v>      -0.00000001       0.00000000      -0.03642246 </v>
   <v>      -0.00000001      -0.00000000      -0.03642246 </v>
   <v>      -0.00000001       0.00000000      -0.03642246 </v>
   <v>      -0.00000001      -0.00000000      -0.03642246 </v>
   <v>       0.00000001       0.00000000       0.03642246 </v>
   <v>       0.00000001      -0.00000000       0.03642246 </v>
   <v>       0.00000001       0.00000000       0.03642246 </v>
   <v>       0.00000001       0.00000000       0.03642246 </v>
   <v>       0.00000001      -0.00000000       0.03642246 </v>
   <v>       0.00000001      -0.00000000       0.03642246 </v>
   <v>       0.00000001      -0.00000000       0.03642246 </v>
   <v>       0.00000001       0.00000000       0.03642246 </v>
   <v>       0.00000001      -0.00000000       0.03642246 </v>
   <v>       0.00000001      -0.00000000       0.03642246 </v>
   <v>       0.00000001      -0.00000000       0.03642246 </v>
   <v>       0.00000001       0.00000000       0.03642246 </v>
   <v>       0.00000001       0.00000000       0.03642246 </v>
   <v>       0.00000001       0.00000000       0.03642246 </v>
   <v>       0.00000001      -0.00000000       0.03642246 </v>
   <v>       0.00000001      -0.00000000       0.03642246 </v>
  </varray>
  <varray name="stress" >
   <v>     -18.93895285      -0.00000000      -0.00000943 </v>
   <v>      -0.00000000       2.52484711       0.00000000 </v>
   <v>      -0.00000943       0.00000000     -24.59535109 </v>
  </varray>
  <energy>
   <i name="e_fr_energy">   -284.83244976 </i>
   <i name="e_wo_entrp">   -284.83244976 </i>
   <i name="e_0_energy">   -284.83244976 </i>
  </energy>
  <time name="totalsc">   50.50   50.56</time>
 </calculation>
 <calculation>
  <scstep>
   <time name="dav">    2.77    2.77</time>
   <time name="total">    3.20    3.20</time>
   <energy>
    <i name="alphaZ">    271.22773125 </i>
    <i name="ewald">  -3248.35978612 </i>
    <i name="hartreedc">  -2357.95168432 </i>
    <i name="XCdc">    453.96724630 </i>
    <i name="pawpsdc">  14776.92577661 </i>
    <i name="pawaedc"> -14788.63908253 </i>
    <i name="eentropy">     -0.00000000 </i>
    <i name="bandstr">   -759.55660272 </i>
    <i name="atom">   5371.30148350 </i>
    <i name="e_fr_energy">   -281.08491805 </i>
    <i name="e_wo_entrp">   -281.08491805 </i>
    <i name="e_0_energy">   -281.08491805 </i>
   </energy>
  </scstep>
  <scstep>
   <time name="dav">    3.09    3.09</time>
   <time name="total">    3.55    3.55</time>
   <energy>
    <i name="e_fr_energy">   -281.08338504 </i>
    <i name="e_wo_entrp">   -281.08338504 </i>
    <i name="e_0_energy">   -281.08338504 </i>
   </energy>
  </scstep>
  <scstep>
   <time name="dav">    3.16    3.16</time>
   <time name="total">    3.62    3.62</time>
   <energy>
    <i name="e_fr_energy">   -281.08310573 </i>
    <i name="e_wo_entrp">   -281.08310573 </i>
    <i name="e_0_energy">   -281.08310573 </i>
   </energy>
  </scstep>
  <scstep>
   <time name="dav">    3.18    3.18</time>
   <time name="total">    3.64    3.64</time>
   <energy>
    <i name="e_fr_energy">   -281.08306128 </i>
    <i name="e_wo_entrp">   -281.08306128 </i>
    <i name="e_0_energy">   -281.08306128 </i>
   </energy>
  </scstep>
  <scstep>
   <time name="dav">    3.19    3.19</time>
   <time name="total">    3.65    3.65</time>
   <energy>
    <i name="e_fr_energy">   -281.08305648 </i>
    <i name="e_wo_entrp">   -281.08305648 </i>
    <i name="e_0_energy">   -281.08305648 </i>
   </energy>
  </scstep>
  <scstep>
   <time name="dav">    2.24    2.24</time>
   <time name="total">    2.44    2.44</time>
   <energy>
    <i name="alphaZ">    271.22773125 </i>
    <i name="ewald">  -3248.35978612 </i>
    <i name="hartreedc">  -2357.97587985 </i>
    <i name="XCdc">    453.92699477 </i>
    <i name="pawpsdc">  14862.70757860 </i>
    <i name="pawaedc"> -14874.46160672 </i>
    <i name="eentropy">     -0.00000000 </i>
    <i name="bandstr">   -759.44957224 </i>
    <i name="atom">   5371.30148350 </i>
    <i name="e_fr_energy">   -281.08305683 </i>
    <i name="e_wo_entrp">   -281.08305683 </i>
    <i name="e_0_energy">   -281.08305683 </i>
   </energy>
  </scstep>
  <structure>
   <crystal>
    <varray name="basis" >
     <v>       5.01882872      -0.00000000      -0.00000000 </v>
     <v>      -0.00000000       3.85061578       0.00000000 </v>
     <v>     -10.03765079       0.00000000      17.37948158 </v>
    </varray>
    <i name="volume">    335.86858004 </i>
    <varray name="rec_basis" >
     <v>       0.19924968       0.00000000       0.11507815 </v>
     <v>       0.00000000       0.25969872       0.00000000 </v>
     <v>       0.00000000       0.00000000       0.05753912 </v>
    </varray>
   </crystal>
   <varray name="positions" >
    <v>       0.16662627       0.50000000       0.08331313 </v>
    <v>       0.16662627       0.50000000       0.58331310 </v>
    <v>       0.66662629       0.50000000       0.08331313 </v>
    <v>       0.66662629       0.50000000       0.58331310 </v>
    <v>       0.16662627       0.50000000       0.20831313 </v>
    <v>       0.16662627       0.50000000       0.70831316 </v>
    <v>       0.66662629       0.50000000       0.20831313 </v>
    <v>       0.66662629       0.50000000       0.70831316 </v>
    <v>       0.16662627       0.50000000       0.33331313 </v>
    <v>       0.16662627       0.50000000       0.83331316 </v>
    <v>       0.66662629       0.50000000       0.33331313 </v>
    <v>       0.66662629       0.50000000       0.83331316 </v>
    <v>       0.16662627       0.50000000       0.45831313 </v>
    <v>       0.16662627       0.50000000       0.95831316 </v>
    <v>       0.66662629       0.50000000       0.45831313 </v>
    <v>       0.66662629       0.50000000       0.95831316 </v>
    <v>       0.33337370       0.50000000       0.04168684 </v>
    <v>       0.33337370       0.50000000       0.54168686 </v>
    <v>       0.83337373       0.50000000       0.04168684 </v>
    <v>       0.83337373       0.50000000       0.54168686 </v>
    <v>       0.33337370       0.50000000       0.16668684 </v>
    <v>       0.33337370       0.50000000       0.66668686 </v>
    <v>       0.83337373       0.50000000       0.16668684 </v>
    <v>       0.83337373       0.50000000       0.66668686 </v>
    <v>       0.33337370       0.50000000       0.29168683 </v>
    <v>       0.33337370       0.50000000       0.79168680 </v>
    <v>       0.83337373       0.50000000       0.29168683 </v>
    <v>       0.83337373       0.50000000       0.79168680 </v>
    <v>       0.33337370       0.50000000       0.41668683 </v>
    <v>       0.33337370       0.50000000       0.91668680 </v>
    <v>       0.83337373       0.50000000       0.41668683 </v>
    <v>       0.83337373       0.50000000       0.91668680 </v>
   </varray>
  </structure>
  <varray name="forces" >
   <v>      -0.00000000      -0.00000000      -0.01231246 </v>
   <v>      -0.00000000      -0.00000000      -0.01231246 </v>
   <v>      -0.00000000      -0.00000000      -0.01231246 </v>
   <v>      -0.00000000      -0.00000000      -0.01231246 </v>
   <v>      -0.00000000      -0.00000000      -0.01231246 </v>
   <v>      -0.00000000      -0.00000000      -0.01231246 </v>
   <v>      -0.00000000      -0.00000000      -0.01231246 </v>
   <v>      -0.00000000       0.00000000      -0.01231246 </v>
   <v>      -0.00000000      -0.00000000      -0.01231246 </v>
   <v>      -0.00000000      -0.00000000      -0.01231246 </v>
   <v>      -0.00000000      -0.00000000      -0.01231246 </v>
   <v>      -0.00000000      -0.00000000      -0.01231246 </v>
   <v>      -0.00000000      -0.00000000      -0.01231246 </v>
   <v>      -0.00000000      -0.00000000      -0.01231246 </v>
   <v>      -0.00000000      -0.00000000      -0.01231246 </v>
   <v>      -0.00000000      -0.00000000      -0.01231246 </v>
   <v>       0.00000000      -0.00000000       0.01231246 </v>
   <v>       0.00000000       0.00000000       0.01231246 </v>
   <v>       0.00000000       0.00000000       0.01231246 </v>
   <v>       0.00000000       0.00000000       0.01231246 </v>
   <v>       0.00000000      -0.00000000       0.01231246 </v>
   <v>       0.00000000      -0.00000000       0.01231246 </v>
   <v>       0.00000000      -0.00000000       0.01231246 </v>
   <v>       0.00000000       0.00000000       0.01231246 </v>
   <v>       0.00000000      -0.00000000       0.01231246 </v>
   <v>       0.00000000      -0.00000000       0.01231246 </v>
   <v>       0.00000000       0.00000000       0.01231246 </v>
   <v>       0.00000000       0.00000000       0.01231246 </v>
   <v>       0.00000000       0.00000000       0.01231246 </v>
   <v>       0.00000000       0.00000000       0.01231246 </v>
   <v>       0.00000000       0.00000000       0.01231246 </v>
   <v>       0.00000000      -0.00000000       0.01231246 </v>
  </varray>
  <varray name="stress" >
   <v>      -6.70881972       0.00000000      -0.00000436 </v>
   <v>       0.00000000       2.40524402       0.00000000 </v>
   <v>      -0.00000436       0.00000000     -11.39816428 </v>
  </varray>
  <energy>
   <i name="e_fr_energy">   -284.84197664 </i>
   <i name="e_wo_entrp">   -284.84197664 </i>
   <i name="e_0_energy">   -284.84197664 </i>
  </energy>
  <time name="totalsc">   24.43   24.43</time>
 </calculation>
 <calculation>
  <scstep>
   <time name="dav">    3.30    3.30</time>
   <time name="total">    3.78    3.78</time>
   <energy>
    <i name="alphaZ">    271.71569013 </i>
    <i name="ewald">  -3245.64937703 </i>
    <i name="hartreedc">  -2361.76633357 </i>
    <i name="XCdc">    454.19290384 </i>
    <i name="pawpsdc">  14862.37102151 </i>
    <i name="pawaedc"> -14874.12494164 </i>
    <i name="eentropy">     -0.00000000 </i>
    <i name="bandstr">   -759.11972916 </i>
    <i name="atom">   5371.30148350 </i>
    <i name="e_fr_energy">   -281.07928242 </i>
    <i name="e_wo_entrp">   -281.07928242 </i>
    <i name="e_0_energy">   -281.07928242 </i>
   </energy>
  </scstep>
  <scstep>
   <time name="dav">    3.98    3.99</time>
   <time name="total">    4.55    4.55</time>
   <energy>
    <i name="e_fr_energy">   -281.07855209 </i>
    <i name="e_wo_entrp">   -281.07855209 </i>
    <i name="e_0_energy">   -281.07855209 </i>
   </energy>
  </scstep>
  <scstep>
   <time name="dav">    4.81    4.81</time>
   <time name="total">    5.53    5.53</time>
   <energy>
    <i name="e_fr_energy">   -281.07842097 </i>
    <i name="e_wo_entrp">   -281.07842097 </i>
    <i name="e_0_energy">   -281.07842097 </i>
   </energy>
  </scstep>
  <scstep>
   <time name="dav">    4.57    4.57</time>
   <time name="total">    5.26    5.27</time>
   <energy>
    <i name="e_fr_energy">   -281.07840075 </i>
    <i name="e_wo_entrp">   -281.07840075 </i>
    <i name="e_0_energy">   -281.07840075 </i>
   </energy>
  </scstep>
  <scstep>
   <time name="dav">    4.38    4.38</time>
   <time name="total">    4.99    4.99</time>
   <energy>
    <i name="e_fr_energy">   -281.07839932 </i>
    <i name="e_wo_entrp">   -281.07839932 </i>
    <i name="e_0_energy">   -281.07839932 </i>
   </energy>
  </scstep>
  <scstep>
   <time name="dav">    2.88    2.88</time>
   <time name="total">    3.15    3.15</time>
   <energy>
    <i name="alphaZ">    271.71569013 </i>
    <i name="ewald">  -3245.64937703 </i>
    <i name="hartreedc">  -2361.78834855 </i>
    <i name="XCdc">    454.16527125 </i>
    <i name="pawpsdc">  14921.92505354 </i>
    <i name="pawaedc"> -14933.70724233 </i>
    <i name="eentropy">     -0.00000000 </i>
    <i name="bandstr">   -759.04093016 </i>
    <i name="atom">   5371.30148350 </i>
    <i name="e_fr_energy">   -281.07839965 </i>
    <i name="e_wo_entrp">   -281.07839965 </i>
    <i name="e_0_energy">   -281.07839965 </i>
   </energy>
  </scstep>
  <structure>
   <crystal>
    <varray name="basis" >
     <v>       5.01466608      -0.00000000      -0.00000001 </v>
     <v>      -0.00000000       3.85104078       0.00000000 </v>
     <v>     -10.02932551       0.00000000      17.36075531 </v>
    </varray>
    <i name="volume">    335.26541259 </i>
    <varray name="rec_basis" >
     <v>       0.19941507       0.00000000       0.11520228 </v>
     <v>       0.00000000       0.25967006       0.00000000 </v>
     <v>       0.00000000       0.00000000       0.05760118 </v>
    </varray>
   </crystal>
   <varray name="positions" >
    <v>       0.16659836       0.50000000       0.08329917 </v>
    <v>       0.16659836       0.50000000       0.58329915 </v>
    <v>       0.66659837       0.50000000       0.08329917 </v>
    <v>       0.66659837       0.50000000       0.58329915 </v>
    <v>       0.16659836       0.50000000       0.20829918 </v>
    <v>       0.16659836       0.50000000       0.70829921 </v>
    <v>       0.66659837       0.50000000       0.20829918 </v>
    <v>       0.66659837       0.50000000       0.70829921 </v>
    <v>       0.16659836       0.50000000       0.33329918 </v>
    <v>       0.16659836       0.50000000       0.83329921 </v>
    <v>       0.66659837       0.50000000       0.33329918 </v>
    <v>       0.66659837       0.50000000       0.83329921 </v>
    <v>       0.16659836       0.50000000       0.45829918 </v>
    <v>       0.16659836       0.50000000       0.95829921 </v>
    <v>       0.66659837       0.50000000       0.45829918 </v>
    <v>       0.66659837       0.50000000       0.95829921 </v>
    <v>       0.33340161       0.50000000       0.04170079 </v>
    <v>       0.33340161       0.50000000       0.54170081 </v>
    <v>       0.83340164       0.50000000       0.04170079 </v>
    <v>       0.83340164       0.50000000       0.54170081 </v>
    <v>       0.33340161       0.50000000       0.16670080 </v>
    <v>       0.33340161       0.50000000       0.66670081 </v>
    <v>       0.83340164       0.50000000       0.16670080 </v>
    <v>       0.83340164       0.50000000       0.66670081 </v>
    <v>       0.33340161       0.50000000       0.29170078 </v>
    <v>       0.33340161       0.50000000       0.79170075 </v>
    <v>       0.83340164       0.50000000       0.29170078 </v>
    <v>       0.83340164       0.50000000       0.79170075 </v>
    <v>       0.33340161       0.50000000       0.41670078 </v>
    <v>       0.33340161       0.50000000       0.91670075 </v>
    <v>       0.83340164       0.50000000       0.41670078 </v>
    <v>       0.83340164       0.50000000       0.91670075 </v>
   </varray>
  </structure>
  <varray name="forces" >
   <v>       0.00000000       0.00000000       0.00452472 </v>
   <v>       0.00000000      -0.00000000       0.00452472 </v>
   <v>       0.00000000       0.00000000       0.00452472 </v>
   <v>       0.00000000      -0.00000000       0.00452472 </v>
   <v>       0.00000000       0.00000000       0.00452472 </v>
   <v>       0.00000000       0.00000000       0.00452472 </v>
   <v>       0.00000000       0.00000000       0.00452472 </v>
   <v>       0.00000000      -0.00000000       0.00452472 </v>
   <v>       0.00000000       0.00000000       0.00452472 </v>
   <v>       0.00000000       0.00000000       0.00452472 </v>
   <v>       0.00000000       0.00000000       0.00452472 </v>
   <v>       0.00000000       0.00000000       0.00452472 </v>
   <v>       0.00000000      -0.00000000       0.00452472 </v>
   <v>       0.00000000      -0.00000000       0.00452472 </v>
   <v>       0.00000000      -0.00000000       0.00452472 </v>
   <v>       0.00000000       0.00000000       0.00452472 </v>
   <v>      -0.00000000       0.00000000      -0.00452472 </v>
   <v>      -0.00000000      -0.00000000      -0.00452472 </v>
   <v>      -0.00000000      -0.00000000      -0.00452472 </v>
   <v>      -0.00000000      -0.00000000      -0.00452472 </v>
   <v>      -0.00000000      -0.00000000      -0.00452472 </v>
   <v>      -0.00000000      -0.00000000      -0.00452472 </v>
   <v>      -0.00000000       0.00000000      -0.00452472 </v>
   <v>      -0.00000000      -0.00000000      -0.00452472 </v>
   <v>      -0.00000000       0.00000000      -0.00452472 </v>
   <v>      -0.00000000      -0.00000000      -0.00452472 </v>
   <v>      -0.00000000       0.00000000      -0.00452472 </v>
   <v>      -0.00000000      -0.00000000      -0.00452472 </v>
   <v>      -0.00000000       0.00000000      -0.00452472 </v>
   <v>      -0.00000000      -0.00000000      -0.00452472 </v>
   <v>      -0.00000000       0.00000000      -0.00452472 </v>
   <v>      -0.00000000      -0.00000000      -0.00452472 </v>
  </varray>
  <varray name="stress" >
   <v>       1.79388158       0.00000000      -0.00000086 </v>
   <v>       0.00000000       2.24452502       0.00000000 </v>
   <v>      -0.00000086       0.00000000      -2.24865512 </v>
  </varray>
  <energy>
   <i name="e_fr_energy">   -284.84406331 </i>
   <i name="e_wo_entrp">   -284.84406331 </i>
   <i name="e_0_energy">   -284.84406331 </i>
  </energy>
  <time name="totalsc">   32.83   32.84</time>
  <eigenvalues>
   <array>
    <dimension dim="1">band</dimension>
    <dimension dim="2">kpoint</dimension>
    <dimension dim="3">spin</dimension>
    <field>eigene</field>
    <field>occ</field>
    <set>
     <set comment="spin 1">
      <set comment="kpoint 1">
       <r>  -16.5009    1.0000 </r>
       <r>  -16.2002    1.0000 </r>
       <r>  -16.2002    1.0000 </r>
       <r>  -15.3410    1.0000 </r>
       <r>  -15.3410    1.0000 </r>
       <r>  -14.1340    1.0000 </r>
       <r>  -14.1340    1.0000 </r>
       <r>  -13.5233    1.0000 </r>
       <r>  -13.5233    1.0000 </r>
       <r>  -13.4631    1.0000 </r>
       <r>  -13.4631    1.0000 </r>
       <r>  -13.4631    1.0000 </r>
       <r>  -13.4631    1.0000 </r>
       <r>  -13.3996    1.0000 </r>
       <r>  -13.3996    1.0000 </r>
       <r>  -13.3934    1.0000 </r>
       <r>   -7.7275    1.0000 </r>
       <r>   -7.7275    1.0000 </r>
       <r>   -7.7213    1.0000 </r>
       <r>   -7.2234    1.0000 </r>
       <r>   -7.2234    1.0000 </r>
       <r>   -7.2233    1.0000 </r>
       <r>   -7.2233    1.0000 </r>
       <r>   -6.4822    1.0000 </r>
       <r>   -6.4822    1.0000 </r>
       <r>   -6.4262    1.0000 </r>
       <r>   -6.4262    1.0000 </r>
       <r>   -4.6933    1.0000 </r>
       <r>   -4.6933    1.0000 </r>
       <r>   -3.9108    1.0000 </r>
       <r>   -3.9108    1.0000 </r>
       <r>   -3.6764    1.0000 </r>
       <r>   -3.6764    1.0000 </r>
       <r>   -3.6764    1.0000 </r>
       <r>   -3.6764    1.0000 </r>
       <r>   -3.5464    1.0000 </r>
       <r>   -3.1582    1.0000 </r>
       <r>   -3.1582    1.0000 </r>
       <r>   -2.9478    1.0000 </r>
       <r>   -2.9284    1.0000 </r>
       <r>   -2.9284    1.0000 </r>
       <r>   -2.6321    1.0000 </r>
       <r>   -2.6321    1.0000 </r>
       <r>   -2.0458    1.0000 </r>
       <r>   -2.0458    1.0000 </r>
       <r>   -1.7708    1.0000 </r>
       <r>   -1.7708    1.0000 </r>
       <r>   -1.3306    1.0000 </r>
       <r>   -1.3306    1.0000 </r>
       <r>   -0.7003    1.0000 </r>
       <r>   -0.7003    1.0000 </r>
       <r>   -0.4626    1.0000 </r>
       <r>   -0.4626    1.0000 </r>
       <r>   -0.1577    1.0000 </r>
       <r>   -0.1280    1.0000 </r>
       <r>    0.3707    1.0000 </r>
       <r>    0.3707    1.0000 </r>
       <r>    0.4543    1.0000 </r>
       <r>    0.4543    1.0000 </r>
       <r>    0.4543    1.0000 </r>
       <r>    0.4543    1.0000 </r>
       <r>    0.5419    1.0000 </r>
       <r>    0.5433    1.0000 </r>
       <r>    0.5433    1.0000 </r>
       <r>    5.7688    0.0000 </r>
       <r>    6.2954    0.0000 </r>
       <r>    6.2954    0.0000 </r>
       <r>    6.6531    0.0000 </r>
       <r>    6.6531    0.0000 </r>
       <r>    6.6687    0.0000 </r>
       <r>    7.0243    0.0000 </r>
       <r>    7.0243    0.0000 </r>
       <r>    7.0243    0.0000 </r>
       <r>    7.0243    0.0000 </r>
       <r>    7.4262    0.0000 </r>
       <r>    7.4262    0.0000 </r>
       <r>    7.6617    0.0000 </r>
       <r>    7.6617    0.0000 </r>
       <r>    8.1216    0.0000 </r>
       <r>    8.1216    0.0000 </r>
       <r>    9.5420    0.0000 </r>
       <r>    9.5420    0.0000 </r>
       <r>   10.5192    0.0000 </r>
       <r>   10.5353    0.0000 </r>
      </set>
      <set comment="kpoint 2">
       <r>  -15.6203    1.0000 </r>
       <r>  -15.6203    1.0000 </r>
       <r>  -15.3429    1.0000 </r>
       <r>  -15.3429    1.0000 </r>
       <r>  -15.3429    1.0000 </r>
       <r>  -15.3429    1.0000 </r>
       <r>  -14.5635    1.0000 </r>
       <r>  -14.5635    1.0000 </r>
       <r>  -14.5635    1.0000 </r>
       <r>  -14.5635    1.0000 </r>
       <r>  -13.5197    1.0000 </r>
       <r>  -13.5197    1.0000 </r>
       <r>  -13.5197    1.0000 </r>
       <r>  -13.5197    1.0000 </r>
       <r>  -12.9304    1.0000 </r>
       <r>  -12.9304    1.0000 </r>
       <r>   -7.0195    1.0000 </r>
       <r>   -7.0195    1.0000 </r>
       <r>   -6.4250    1.0000 </r>
       <r>   -6.4250    1.0000 </r>
       <r>   -6.4250    1.0000 </r>
       <r>   -6.4250    1.0000 </r>
       <r>   -5.3944    1.0000 </r>
       <r>   -5.3944    1.0000 </r>
       <r>   -5.2900    1.0000 </r>
       <r>   -5.2900    1.0000 </r>
       <r>   -5.2900    1.0000 </r>
       <r>   -5.2900    1.0000 </r>
       <r>   -4.6994    1.0000 </r>
       <r>   -4.6994    1.0000 </r>
       <r>   -4.6994    1.0000 </r>
       <r>   -4.6994    1.0000 </r>
       <r>   -3.9249    1.0000 </r>
       <r>   -3.9249    1.0000 </r>
       <r>   -3.9249    1.0000 </r>
       <r>   -3.9249    1.0000 </r>
       <r>   -2.9964    1.0000 </r>
       <r>   -2.9964    1.0000 </r>
       <r>   -2.9964    1.0000 </r>
       <r>   -2.9964    1.0000 </r>
       <r>   -2.9841    1.0000 </r>
       <r>   -2.9841    1.0000 </r>
       <r>   -2.4063    1.0000 </r>
       <r>   -2.4063    1.0000 </r>
       <r>   -2.0462    1.0000 </r>
       <r>   -2.0462    1.0000 </r>
       <r>   -2.0462    1.0000 </r>
       <r>   -2.0462    1.0000 </r>
       <r>   -1.7508    1.0000 </r>
       <r>   -1.7508    1.0000 </r>
       <r>   -1.7508    1.0000 </r>
       <r>   -1.7508    1.0000 </r>
       <r>   -1.7409    1.0000 </r>
       <r>   -1.7409    1.0000 </r>
       <r>   -1.0279    1.0000 </r>
       <r>   -1.0279    1.0000 </r>
       <r>   -1.0279    1.0000 </r>
       <r>   -1.0279    1.0000 </r>
       <r>    0.3708    1.0000 </r>
       <r>    0.3708    1.0000 </r>
       <r>    0.3708    1.0000 </r>
       <r>    0.3708    1.0000 </r>
       <r>    1.2091    1.0000 </r>
       <r>    1.2091    1.0000 </r>
       <r>    6.4937    0.0000 </r>
       <r>    6.4937    0.0000 </r>
       <r>    7.2598    0.0000 </r>
       <r>    7.2598    0.0000 </r>
       <r>    7.4326    0.0000 </r>
       <r>    7.4326    0.0000 </r>
       <r>    7.4327    0.0000 </r>
       <r>    7.4327    0.0000 </r>
       <r>    7.6612    0.0000 </r>
       <r>    7.6612    0.0000 </r>
       <r>    7.6612    0.0000 </r>
       <r>    7.6612    0.0000 </r>
       <r>    9.0294    0.0000 </r>
       <r>    9.0294    0.0000 </r>
       <r>    9.0294    0.0000 </r>
       <r>    9.0294    0.0000 </r>
       <r>    9.1829    0.0000 </r>
       <r>    9.1829    0.0000 </r>
       <r>    9.1829    0.0000 </r>
       <r>    9.1829    0.0000 </r>
      </set>
      <set comment="kpoint 3">
       <r>  -16.4145    1.0000 </r>
       <r>  -16.1172    1.0000 </r>
       <r>  -16.1172    1.0000 </r>
       <r>  -15.2681    1.0000 </r>
       <r>  -15.2681    1.0000 </r>
       <r>  -14.0779    1.0000 </r>
       <r>  -14.0778    1.0000 </r>
       <r>  -13.4757    1.0000 </r>
       <r>  -13.4757    1.0000 </r>
       <r>  -13.4181    1.0000 </r>
       <r>  -13.4180    1.0000 </r>
       <r>  -13.4180    1.0000 </r>
       <r>  -13.4180    1.0000 </r>
       <r>  -13.3571    1.0000 </r>
       <r>  -13.3571    1.0000 </r>
       <r>  -13.3508    1.0000 </r>
       <r>   -7.6436    1.0000 </r>
       <r>   -7.6436    1.0000 </r>
       <r>   -7.6375    1.0000 </r>
       <r>   -7.1483    1.0000 </r>
       <r>   -7.1483    1.0000 </r>
       <r>   -7.1483    1.0000 </r>
       <r>   -7.1483    1.0000 </r>
       <r>   -6.4123    1.0000 </r>
       <r>   -6.4123    1.0000 </r>
       <r>   -6.3662    1.0000 </r>
       <r>   -6.3662    1.0000 </r>
       <r>   -4.6440    1.0000 </r>
       <r>   -4.6440    1.0000 </r>
       <r>   -4.5187    1.0000 </r>
       <r>   -4.1069    1.0000 </r>
       <r>   -4.1069    1.0000 </r>
       <r>   -3.8595    1.0000 </r>
       <r>   -3.8595    1.0000 </r>
       <r>   -3.6471    1.0000 </r>
       <r>   -3.6471    1.0000 </r>
       <r>   -3.6471    1.0000 </r>
       <r>   -3.6471    1.0000 </r>
       <r>   -2.9332    1.0000 </r>
       <r>   -2.9147    1.0000 </r>
       <r>   -2.9147    1.0000 </r>
       <r>   -2.9138    1.0000 </r>
       <r>   -2.9138    1.0000 </r>
       <r>   -2.6182    1.0000 </r>
       <r>   -2.6182    1.0000 </r>
       <r>   -1.7586    1.0000 </r>
       <r>   -1.7586    1.0000 </r>
       <r>   -1.3004    1.0000 </r>
       <r>   -1.3004    1.0000 </r>
       <r>   -1.1646    1.0000 </r>
       <r>   -1.1646    1.0000 </r>
       <r>   -0.6907    1.0000 </r>
       <r>   -0.6907    1.0000 </r>
       <r>   -0.2278    1.0000 </r>
       <r>   -0.2278    1.0000 </r>
       <r>   -0.1498    1.0000 </r>
       <r>   -0.1200    1.0000 </r>
       <r>   -0.1058    1.0000 </r>
       <r>   -0.1058    1.0000 </r>
       <r>   -0.1058    1.0000 </r>
       <r>   -0.1058    1.0000 </r>
       <r>    0.0278    1.0000 </r>
       <r>    0.0288    1.0000 </r>
       <r>    0.0288    1.0000 </r>
       <r>    5.3595    0.0000 </r>
       <r>    5.3595    0.0000 </r>
       <r>    5.3747    0.0000 </r>
       <r>    5.8720    0.0000 </r>
       <r>    5.8720    0.0000 </r>
       <r>    5.8720    0.0000 </r>
       <r>    5.8720    0.0000 </r>
       <r>    6.4482    0.0000 </r>
       <r>    6.4482    0.0000 </r>
       <r>    6.9601    0.0000 </r>
       <r>    6.9601    0.0000 </r>
       <r>    9.2451    0.0000 </r>
       <r>    9.2451    0.0000 </r>
       <r>    9.7560    0.0000 </r>
       <r>    9.8345    0.0000 </r>
       <r>    9.8345    0.0000 </r>
       <r>   11.2824    0.0000 </r>
       <r>   11.2998    0.0000 </r>
       <r>   11.3091    0.0000 </r>
       <r>   11.3985    0.0000 </r>
      </set>
      <set comment="kpoint 4">
       <r>  -15.5440    1.0000 </r>
       <r>  -15.5440    1.0000 </r>
       <r>  -15.2700    1.0000 </r>
       <r>  -15.2700    1.0000 </r>
       <r>  -15.2700    1.0000 </r>
       <r>  -15.2700    1.0000 </r>
       <r>  -14.5005    1.0000 </r>
       <r>  -14.5005    1.0000 </r>
       <r>  -14.5005    1.0000 </r>
       <r>  -14.5005    1.0000 </r>
       <r>  -13.4721    1.0000 </r>
       <r>  -13.4721    1.0000 </r>
       <r>  -13.4720    1.0000 </r>
       <r>  -13.4720    1.0000 </r>
       <r>  -12.8936    1.0000 </r>
       <r>  -12.8936    1.0000 </r>
       <r>   -6.9558    1.0000 </r>
       <r>   -6.9558    1.0000 </r>
       <r>   -6.3651    1.0000 </r>
       <r>   -6.3651    1.0000 </r>
       <r>   -6.3651    1.0000 </r>
       <r>   -6.3651    1.0000 </r>
       <r>   -5.3349    1.0000 </r>
       <r>   -5.3349    1.0000 </r>
       <r>   -5.2325    1.0000 </r>
       <r>   -5.2325    1.0000 </r>
       <r>   -5.2325    1.0000 </r>
       <r>   -5.2325    1.0000 </r>
       <r>   -4.6501    1.0000 </r>
       <r>   -4.6501    1.0000 </r>
       <r>   -4.6501    1.0000 </r>
       <r>   -4.6501    1.0000 </r>
       <r>   -3.8736    1.0000 </r>
       <r>   -3.8736    1.0000 </r>
       <r>   -3.8735    1.0000 </r>
       <r>   -3.8735    1.0000 </r>
       <r>   -3.3038    1.0000 </r>
       <r>   -3.3038    1.0000 </r>
       <r>   -2.9700    1.0000 </r>
       <r>   -2.9700    1.0000 </r>
       <r>   -2.9700    1.0000 </r>
       <r>   -2.9700    1.0000 </r>
       <r>   -2.9402    1.0000 </r>
       <r>   -2.9402    1.0000 </r>
       <r>   -2.9154    1.0000 </r>
       <r>   -2.9154    1.0000 </r>
       <r>   -2.9153    1.0000 </r>
       <r>   -2.9153    1.0000 </r>
       <r>   -1.8044    1.0000 </r>
       <r>   -1.8044    1.0000 </r>
       <r>   -1.8044    1.0000 </r>
       <r>   -1.8044    1.0000 </r>
       <r>   -1.7385    1.0000 </r>
       <r>   -1.7385    1.0000 </r>
       <r>   -1.7385    1.0000 </r>
       <r>   -1.7385    1.0000 </r>
       <r>   -1.7231    1.0000 </r>
       <r>   -1.7231    1.0000 </r>
       <r>   -0.2272    1.0000 </r>
       <r>   -0.2272    1.0000 </r>
       <r>   -0.2272    1.0000 </r>
       <r>   -0.2272    1.0000 </r>
       <r>    0.7836    1.0000 </r>
       <r>    0.7836    1.0000 </r>
       <r>    5.4436    0.0000 </r>
       <r>    5.4436    0.0000 </r>
       <r>    6.4545    0.0000 </r>
       <r>    6.4545    0.0000 </r>
       <r>    6.4545    0.0000 </r>
       <r>    6.4545    0.0000 </r>
       <r>    8.0641    0.0000 </r>
       <r>    8.0641    0.0000 </r>
       <r>    8.0641    0.0000 </r>
       <r>    8.0641    0.0000 </r>
       <r>    9.2394    0.0000 </r>
       <r>    9.2394    0.0000 </r>
       <r>    9.2394    0.0000 </r>
       <r>    9.2394    0.0000 </r>
       <r>    9.6123    0.0000 </r>
       <r>    9.6123    0.0000 </r>
       <r>   11.7674    0.0000 </r>
       <r>   11.7674    0.0000 </r>
       <r>   11.7674    0.0000 </r>
       <r>   11.7674    0.0000 </r>
      </set>
     </set>
    </set>
   </array>
  </eigenvalues>
  <separator name="orbital magnetization" >
   <v name="MAGDIPOLOUT">      0.00000000      0.00000000      0.00000000</v>
  </separator>
  <dos>
   <i name="efermi">      1.68210979 </i>
   <total>
    <array>
     <dimension dim="1">gridpoints</dimension>
     <dimension dim="2">spin</dimension>
     <field>energy</field>
     <field>total</field>
     <field>integrated</field>
     <set>
      <set comment="spin 1">
       <r>   -17.9143     0.0000     0.0000 </r>
       <r>   -17.8106     0.0000     0.0000 </r>
       <r>   -17.7070     0.0000     0.0000 </r>
       <r>   -17.6033     0.0000     0.0000 </r>
       <r>   -17.4997     0.0000     0.0000 </r>
       <r>   -17.3960     0.0000     0.0000 </r>
       <r>   -17.2924     0.0000     0.0000 </r>
       <r>   -17.1887     0.0000     0.0000 </r>
       <r>   -17.0851     0.0000     0.0000 </r>
       <r>   -16.9814     0.0000     0.0000 </r>
       <r>   -16.8778     0.0000     0.0000 </r>
       <r>   -16.7741     0.0003     0.0000 </r>
       <r>   -16.6705     0.0401     0.0042 </r>
       <r>   -16.5668     0.8813     0.0955 </r>
       <r>   -16.4632     3.6551     0.4744 </r>
       <r>   -16.3595     4.0270     0.8918 </r>
       <r>   -16.2559     3.3031     1.2341 </r>
       <r>   -16.1522     7.9824     2.0615 </r>
       <r>   -16.0486     7.3000     2.8182 </r>
       <r>   -15.9449     1.6812     2.9924 </r>
       <r>   -15.8413     0.0812     3.0009 </r>
       <r>   -15.7376     0.4896     3.0516 </r>
       <r>   -15.6340     4.5654     3.5248 </r>
       <r>   -15.5303     9.2817     4.4869 </r>
       <r>   -15.4267     8.1965     5.3364 </r>
       <r>   -15.3230    20.8020     7.4926 </r>
       <r>   -15.2194    25.7058    10.1570 </r>
       <r>   -15.1157     7.6821    10.9532 </r>
       <r>   -15.0121     0.4473    10.9996 </r>
       <r>   -14.9084     0.0040    11.0000 </r>
       <r>   -14.8048     0.0064    11.0007 </r>
       <r>   -14.7011     0.5351    11.0561 </r>
       <r>   -14.5975     7.1854    11.8009 </r>
       <r>   -14.4938    18.8106    13.7506 </r>
       <r>   -14.3902    10.7725    14.8672 </r>
       <r>   -14.2865     1.4213    15.0145 </r>
       <r>   -14.1829     2.8845    15.3135 </r>
       <r>   -14.0792     9.2569    16.2730 </r>
       <r>   -13.9756     6.1789    16.9134 </r>
       <r>   -13.8719     0.8169    16.9981 </r>
       <r>   -13.7683     0.0256    17.0008 </r>
       <r>   -13.6646     0.7488    17.0784 </r>
       <r>   -13.5610    12.8116    18.4063 </r>
       <r>   -13.4573    46.8978    23.2673 </r>
       <r>   -13.3537    47.7025    28.2117 </r>
       <r>   -13.2500    15.7673    29.8459 </r>
       <r>   -13.1464     1.4716    29.9985 </r>
       <r>   -13.0427     0.7238    30.0735 </r>
       <r>   -12.9391     6.1503    30.7110 </r>
       <r>   -12.8354     9.5889    31.7049 </r>
       <r>   -12.7318     2.7166    31.9864 </r>
       <r>   -12.6281     0.1298    31.9999 </r>
       <r>   -12.5245     0.0009    32.0000 </r>
       <r>   -12.4208     0.0000    32.0000 </r>
       <r>   -12.3172     0.0000    32.0000 </r>
       <r>   -12.2135     0.0000    32.0000 </r>
       <r>   -12.1099     0.0000    32.0000 </r>
       <r>   -12.0062     0.0000    32.0000 </r>
       <r>   -11.9026     0.0000    32.0000 </r>
       <r>   -11.7989     0.0000    32.0000 </r>
       <r>   -11.6953     0.0000    32.0000 </r>
       <r>   -11.5916     0.0000    32.0000 </r>
       <r>   -11.4880     0.0000    32.0000 </r>
       <r>   -11.3843     0.0000    32.0000 </r>
       <r>   -11.2807     0.0000    32.0000 </r>
       <r>   -11.1770     0.0000    32.0000 </r>
       <r>   -11.0734     0.0000    32.0000 </r>
       <r>   -10.9697     0.0000    32.0000 </r>
       <r>   -10.8661     0.0000    32.0000 </r>
       <r>   -10.7624     0.0000    32.0000 </r>
       <r>   -10.6588     0.0000    32.0000 </r>
       <r>   -10.5551     0.0000    32.0000 </r>
       <r>   -10.4515     0.0000    32.0000 </r>
       <r>   -10.3478     0.0000    32.0000 </r>
       <r>   -10.2442     0.0000    32.0000 </r>
       <r>   -10.1405     0.0000    32.0000 </r>
       <r>   -10.0369     0.0000    32.0000 </r>
       <r>    -9.9332     0.0000    32.0000 </r>
       <r>    -9.8296     0.0000    32.0000 </r>
       <r>    -9.7259     0.0000    32.0000 </r>
       <r>    -9.6223     0.0000    32.0000 </r>
       <r>    -9.5186     0.0000    32.0000 </r>
       <r>    -9.4150     0.0000    32.0000 </r>
       <r>    -9.3113     0.0000    32.0000 </r>
       <r>    -9.2077     0.0000    32.0000 </r>
       <r>    -9.1040     0.0000    32.0000 </r>
       <r>    -9.0004     0.0000    32.0000 </r>
       <r>    -8.8967     0.0000    32.0000 </r>
       <r>    -8.7931     0.0000    32.0000 </r>
       <r>    -8.6894     0.0000    32.0000 </r>
       <r>    -8.5858     0.0000    32.0000 </r>
       <r>    -8.4821     0.0000    32.0000 </r>
       <r>    -8.3785     0.0000    32.0000 </r>
       <r>    -8.2748     0.0000    32.0000 </r>
       <r>    -8.1712     0.0000    32.0000 </r>
       <r>    -8.0675     0.0000    32.0000 </r>
       <r>    -7.9639     0.0055    32.0006 </r>
       <r>    -7.8602     0.4200    32.0441 </r>
       <r>    -7.7566     5.1030    32.5730 </r>
       <r>    -7.6529    13.0491    33.9256 </r>
       <r>    -7.5493     8.8844    34.8465 </r>
       <r>    -7.4456     1.4566    34.9974 </r>
       <r>    -7.3420     0.9860    35.0996 </r>
       <r>    -7.2383     9.0408    36.0367 </r>
       <r>    -7.1347    18.9515    38.0010 </r>
       <r>    -7.0310    14.2257    39.4755 </r>
       <r>    -6.9274    10.4459    40.5583 </r>
       <r>    -6.8237     3.9369    40.9663 </r>
       <r>    -6.7201     0.3248    41.0000 </r>
       <r>    -6.6164     0.4026    41.0417 </r>
       <r>    -6.5128     7.2342    41.7916 </r>
       <r>    -6.4091    30.4436    44.9471 </r>
       <r>    -6.3055    31.3820    48.1998 </r>
       <r>    -6.2018     7.3845    48.9652 </r>
       <r>    -6.0982     0.3332    48.9998 </r>
       <r>    -5.9945     0.0024    49.0000 </r>
       <r>    -5.8908     0.0000    49.0000 </r>
       <r>    -5.7872     0.0000    49.0000 </r>
       <r>    -5.6835     0.0002    49.0000 </r>
       <r>    -5.5799     0.0447    49.0047 </r>
       <r>    -5.4762     1.4533    49.1553 </r>
       <r>    -5.3726    10.1585    50.2082 </r>
       <r>    -5.2689    23.3309    52.6265 </r>
       <r>    -5.1653    18.7627    54.5712 </r>
       <r>    -5.0616     3.9726    54.9830 </r>
       <r>    -4.9580     0.1665    55.0003 </r>
       <r>    -4.8543     0.4334    55.0452 </r>
       <r>    -4.7507     8.2246    55.8977 </r>
       <r>    -4.6470    28.1863    58.8192 </r>
       <r>    -4.5434    20.3507    60.9286 </r>
       <r>    -4.4397     4.8247    61.4286 </r>
       <r>    -4.3361     0.6704    61.4981 </r>
       <r>    -4.2324     0.3839    61.5379 </r>
       <r>    -4.1288     3.3365    61.8837 </r>
       <r>    -4.0251     7.1723    62.6271 </r>
       <r>    -3.9215    19.6407    64.6629 </r>
       <r>    -3.8178    28.6083    67.6282 </r>
       <r>    -3.7142    17.0020    69.3904 </r>
       <r>    -3.6105    21.6438    71.6338 </r>
       <r>    -3.5069    11.1930    72.7940 </r>
       <r>    -3.4032     2.6493    73.0686 </r>
       <r>    -3.2996     4.6080    73.5462 </r>
       <r>    -3.1959     6.7065    74.2413 </r>
       <r>    -3.0923     9.3577    75.2113 </r>
       <r>    -2.9886    32.9941    78.6311 </r>
       <r>    -2.8850    56.8544    84.5241 </r>
       <r>    -2.7813    22.4785    86.8540 </r>
       <r>    -2.6777     5.8252    87.4578 </r>
       <r>    -2.5740    10.4125    88.5370 </r>
       <r>    -2.4704     5.9420    89.1529 </r>
       <r>    -2.3667     5.3912    89.7117 </r>
       <r>    -2.2631     2.6054    89.9818 </r>
       <r>    -2.1594     1.7472    90.1629 </r>
       <r>    -2.0558    11.3161    91.3358 </r>
       <r>    -1.9521    13.9096    92.7775 </r>
       <r>    -1.8485    13.2631    94.1523 </r>
       <r>    -1.7448    43.6261    98.6741 </r>
       <r>    -1.6412    35.9941   102.4049 </r>
       <r>    -1.5375     5.6175   102.9872 </r>
       <r>    -1.4339     1.1038   103.1016 </r>
       <r>    -1.3302     7.2036   103.8483 </r>
       <r>    -1.2266    10.8863   104.9766 </r>
       <r>    -1.1229     8.8480   105.8937 </r>
       <r>    -1.0193    11.4184   107.0773 </r>
       <r>    -0.9156     7.8353   107.8894 </r>
       <r>    -0.8120     2.0132   108.0980 </r>
       <r>    -0.7083     7.3191   108.8567 </r>
       <r>    -0.6047     9.3153   109.8222 </r>
       <r>    -0.5010     4.4874   110.2873 </r>
       <r>    -0.3974     5.3937   110.8464 </r>
       <r>    -0.2937     6.8267   111.5540 </r>
       <r>    -0.1901    21.8409   113.8178 </r>
       <r>    -0.0864    28.3495   116.7562 </r>
       <r>     0.0172    17.2239   118.5415 </r>
       <r>     0.1209     7.8525   119.3554 </r>
       <r>     0.2245     1.9246   119.5549 </r>
       <r>     0.3282     8.1202   120.3966 </r>
       <r>     0.4318    22.7610   122.7558 </r>
       <r>     0.5355    20.7558   124.9071 </r>
       <r>     0.6391     9.3995   125.8814 </r>
       <r>     0.7428     3.8306   126.2784 </r>
       <r>     0.8464     5.1571   126.8129 </r>
       <r>     0.9501     1.7165   126.9909 </r>
       <r>     1.0537     0.2227   127.0139 </r>
       <r>     1.1574     2.1069   127.2323 </r>
       <r>     1.2610     5.1750   127.7687 </r>
       <r>     1.3647     2.0974   127.9861 </r>
       <r>     1.4683     0.1328   127.9999 </r>
       <r>     1.5720     0.0012   128.0000 </r>
       <r>     1.6756     0.0000   128.0000 </r>
       <r>     1.7793     0.0000   128.0000 </r>
       <r>     1.8829     0.0000   128.0000 </r>
       <r>     1.9866     0.0000   128.0000 </r>
       <r>     2.0902     0.0000   128.0000 </r>
       <r>     2.1939     0.0000   128.0000 </r>
       <r>     2.2975     0.0000   128.0000 </r>
       <r>     2.4012     0.0000   128.0000 </r>
       <r>     2.5048     0.0000   128.0000 </r>
       <r>     2.6085     0.0000   128.0000 </r>
       <r>     2.7121     0.0000   128.0000 </r>
       <r>     2.8158     0.0000   128.0000 </r>
       <r>     2.9194     0.0000   128.0000 </r>
       <r>     3.0231     0.0000   128.0000 </r>
       <r>     3.1267     0.0000   128.0000 </r>
       <r>     3.2304     0.0000   128.0000 </r>
       <r>     3.3340     0.0000   128.0000 </r>
       <r>     3.4377     0.0000   128.0000 </r>
       <r>     3.5413     0.0000   128.0000 </r>
       <r>     3.6450     0.0000   128.0000 </r>
       <r>     3.7486     0.0000   128.0000 </r>
       <r>     3.8523     0.0000   128.0000 </r>
       <r>     3.9559     0.0000   128.0000 </r>
       <r>     4.0596     0.0000   128.0000 </r>
       <r>     4.1632     0.0000   128.0000 </r>
       <r>     4.2669     0.0000   128.0000 </r>
       <r>     4.3705     0.0000   128.0000 </r>
       <r>     4.4742     0.0000   128.0000 </r>
       <r>     4.5778     0.0000   128.0000 </r>
       <r>     4.6815     0.0000   128.0000 </r>
       <r>     4.7851     0.0000   128.0000 </r>
       <r>     4.8888     0.0000   128.0000 </r>
       <r>     4.9924     0.0000   128.0000 </r>
       <r>     5.0961     0.0011   128.0001 </r>
       <r>     5.1997     0.1489   128.0156 </r>
       <r>     5.3034     2.8962   128.3157 </r>
       <r>     5.4070    10.3653   129.3901 </r>
       <r>     5.5107     8.7680   130.2989 </r>
       <r>     5.6143     1.9333   130.4993 </r>
       <r>     5.7180     1.4302   130.6475 </r>
       <r>     5.8216     6.9032   131.3631 </r>
       <r>     5.9253    11.3800   132.5426 </r>
       <r>     6.0289     4.1583   132.9736 </r>
       <r>     6.1326     0.3554   133.0105 </r>
       <r>     6.2363     1.8779   133.2051 </r>
       <r>     6.3399     6.8820   133.9184 </r>
       <r>     6.4436    15.9732   135.5741 </r>
       <r>     6.5472    19.4814   137.5933 </r>
       <r>     6.6509    10.3567   138.6668 </r>
       <r>     6.7545     6.7825   139.3698 </r>
       <r>     6.8582     2.1229   139.5898 </r>
       <r>     6.9618     7.6885   140.3867 </r>
       <r>     7.0655    14.3549   141.8746 </r>
       <r>     7.1691     6.5924   142.5579 </r>
       <r>     7.2728     5.3334   143.1108 </r>
       <r>     7.3764     9.7135   144.1176 </r>
       <r>     7.4801    16.1251   145.7889 </r>
       <r>     7.5837    10.3564   146.8624 </r>
       <r>     7.6874    15.1196   148.4295 </r>
       <r>     7.7910     9.3624   149.4000 </r>
       <r>     7.8947     1.1177   149.5158 </r>
       <r>     7.9983     3.6393   149.8930 </r>
       <r>     8.1020    13.5600   151.2985 </r>
       <r>     8.2056    10.0216   152.3372 </r>
       <r>     8.3093     1.5267   152.4955 </r>
       <r>     8.4129     0.0433   152.5000 </r>
       <r>     8.5166     0.0002   152.5000 </r>
       <r>     8.6202     0.0000   152.5000 </r>
       <r>     8.7239     0.0002   152.5000 </r>
       <r>     8.8275     0.0414   152.5043 </r>
       <r>     8.9312     1.5530   152.6653 </r>
       <r>     9.0348     9.0460   153.6029 </r>
       <r>     9.1385    14.6934   155.1259 </r>
       <r>     9.2421    23.9503   157.6083 </r>
       <r>     9.3458    16.0471   159.2716 </r>
       <r>     9.4494     3.1759   159.6008 </r>
       <r>     9.5531     6.4021   160.2644 </r>
       <r>     9.6567     9.3034   161.2287 </r>
       <r>     9.7604     6.3833   161.8903 </r>
       <r>     9.8640     7.1351   162.6299 </r>
       <r>     9.9677     3.2764   162.9695 </r>
       <r>    10.0713     0.2907   162.9996 </r>
       <r>    10.1750     0.0039   163.0000 </r>
       <r>    10.2786     0.0023   163.0002 </r>
       <r>    10.3823     0.1982   163.0208 </r>
       <r>    10.4859     2.5057   163.2805 </r>
       <r>    10.5896     5.1010   163.8092 </r>
       <r>    10.6932     1.7454   163.9901 </r>
       <r>    10.7969     0.0944   163.9999 </r>
       <r>    10.9005     0.0007   164.0000 </r>
       <r>    11.0042     0.0003   164.0000 </r>
       <r>    11.1078     0.0590   164.0061 </r>
       <r>    11.2115     1.6347   164.1756 </r>
       <r>    11.3151     7.5505   164.9582 </r>
       <r>    11.4188     7.5374   165.7394 </r>
       <r>    11.5224     2.3147   165.9794 </r>
       <r>    11.6261     0.6362   166.0453 </r>
       <r>    11.7297     5.2945   166.5941 </r>
       <r>    11.8334    10.1789   167.6491 </r>
       <r>    11.9370     3.2263   167.9835 </r>
       <r>    12.0407     0.1576   167.9999 </r>
       <r>    12.1443     0.0011   168.0000 </r>
       <r>    12.2480     0.0000   168.0000 </r>
       <r>    12.3516     0.0000   168.0000 </r>
       <r>    12.4553     0.0000   168.0000 </r>
       <r>    12.5589     0.0000   168.0000 </r>
       <r>    12.6626     0.0000   168.0000 </r>
       <r>    12.7662     0.0000   168.0000 </r>
       <r>    12.8699     0.0000   168.0000 </r>
       <r>    12.9735     0.0000   168.0000 </r>
       <r>    13.0772     0.0000   168.0000 </r>
       <r>    13.1808     0.0000   168.0000 </r>
      </set>
     </set>
    </array>
   </total>
  </dos>
 </calculation>
 <structure name="finalpos" >
  <crystal>
   <varray name="basis" >
    <v>       5.01466608      -0.00000000      -0.00000001 </v>
    <v>      -0.00000000       3.85104078       0.00000000 </v>
    <v>     -10.02932551       0.00000000      17.36075531 </v>
   </varray>
   <i name="volume">    335.26541259 </i>
   <varray name="rec_basis" >
    <v>       0.19941507       0.00000000       0.11520228 </v>
    <v>       0.00000000       0.25967006       0.00000000 </v>
    <v>       0.00000000       0.00000000       0.05760118 </v>
   </varray>
  </crystal>
  <varray name="positions" >
   <v>       0.16659836       0.50000000       0.08329917 </v>
   <v>       0.16659836       0.50000000       0.58329915 </v>
   <v>       0.66659837       0.50000000       0.08329917 </v>
   <v>       0.66659837       0.50000000       0.58329915 </v>
   <v>       0.16659836       0.50000000       0.20829918 </v>
   <v>       0.16659836       0.50000000       0.70829921 </v>
   <v>       0.66659837       0.50000000       0.20829918 </v>
   <v>       0.66659837       0.50000000       0.70829921 </v>
   <v>       0.16659836       0.50000000       0.33329918 </v>
   <v>       0.16659836       0.50000000       0.83329921 </v>
   <v>       0.66659837       0.50000000       0.33329918 </v>
   <v>       0.66659837       0.50000000       0.83329921 </v>
   <v>       0.16659836       0.50000000       0.45829918 </v>
   <v>       0.16659836       0.50000000       0.95829921 </v>
   <v>       0.66659837       0.50000000       0.45829918 </v>
   <v>       0.66659837       0.50000000       0.95829921 </v>
   <v>       0.33340161       0.50000000       0.04170079 </v>
   <v>       0.33340161       0.50000000       0.54170081 </v>
   <v>       0.83340164       0.50000000       0.04170079 </v>
   <v>       0.83340164       0.50000000       0.54170081 </v>
   <v>       0.33340161       0.50000000       0.16670080 </v>
   <v>       0.33340161       0.50000000       0.66670081 </v>
   <v>       0.83340164       0.50000000       0.16670080 </v>
   <v>       0.83340164       0.50000000       0.66670081 </v>
   <v>       0.33340161       0.50000000       0.29170078 </v>
   <v>       0.33340161       0.50000000       0.79170075 </v>
   <v>       0.83340164       0.50000000       0.29170078 </v>
   <v>       0.83340164       0.50000000       0.79170075 </v>
   <v>       0.33340161       0.50000000       0.41670078 </v>
   <v>       0.33340161       0.50000000       0.91670075 </v>
   <v>       0.83340164       0.50000000       0.41670078 </v>
   <v>       0.83340164       0.50000000       0.91670075 </v>
  </varray>
 </structure>
</modeling>
