   4   4   0   0
  0.1053315E+02  0.2512428E-09  0.2512428E-09  0.7707265E-09  0.1000000E-15
  1.000000000000000E-004
  CAR 
 unknown system                          
    118.77680841    -22.95857451  301      1.19549699      1.00000000
    -22.959  0.0000E+00  0.0000E+00
    -22.486  0.0000E+00  0.0000E+00
    -22.014  0.0000E+00  0.0000E+00
    -21.541  0.0000E+00  0.0000E+00
    -21.069  0.0000E+00  0.0000E+00
    -20.596  0.0000E+00  0.0000E+00
    -20.124  0.0000E+00  0.0000E+00
    -19.651  0.0000E+00  0.0000E+00
    -19.179  0.0000E+00  0.0000E+00
    -18.707  0.0000E+00  0.0000E+00
    -18.234  0.0000E+00  0.0000E+00
    -17.762  0.0000E+00  0.0000E+00
    -17.289  0.0000E+00  0.0000E+00
    -16.817  0.3136E-07  0.1482E-07
    -16.344  0.1009E-01  0.4767E-02
    -15.872  0.4928E-03  0.5000E-02
    -15.399  0.1102E-01  0.1020E-01
    -14.927  0.5248E-01  0.3500E-01
    -14.454  0.0000E+00  0.3500E-01
    -13.982  0.1538E-10  0.3500E-01
    -13.510  0.4331E-01  0.5546E-01
    -13.037  0.5194E-01  0.8000E-01
    -12.565  0.0000E+00  0.8000E-01
    -12.092  0.0000E+00  0.8000E-01
    -11.620  0.0000E+00  0.8000E-01
    -11.147  0.0000E+00  0.8000E-01
    -10.675  0.0000E+00  0.8000E-01
    -10.202  0.0000E+00  0.8000E-01
     -9.730  0.0000E+00  0.8000E-01
     -9.257  0.0000E+00  0.8000E-01
     -8.785  0.0000E+00  0.8000E-01
     -8.313  0.0000E+00  0.8000E-01
     -7.840  0.1066E-02  0.8050E-01
     -7.368  0.3068E-01  0.9500E-01
     -6.895  0.1481E-11  0.9500E-01
     -6.423  0.3383E-01  0.1110E+00
     -5.950  0.2967E-01  0.1250E+00
     -5.478  0.0000E+00  0.1250E+00
     -5.005  0.1318E-05  0.1250E+00
     -4.533  0.6449E-01  0.1555E+00
     -4.061  0.8475E-02  0.1595E+00
     -3.588  0.6291E-01  0.1892E+00
     -3.116  0.2558E-02  0.1904E+00
     -2.643  0.4856E-01  0.2133E+00
     -2.171  0.3134E-01  0.2282E+00
     -1.698  0.7402E-01  0.2631E+00
     -1.226  0.3967E-02  0.2650E+00
     -0.753  0.2050E-13  0.2650E+00
     -0.281  0.9050E-02  0.2693E+00
      0.192  0.7366E-01  0.3041E+00
      0.664  0.3370E-01  0.3200E+00
      1.136  0.3728E-05  0.3200E+00
      1.609  0.0000E+00  0.3200E+00
      2.081  0.0000E+00  0.3200E+00
      2.554  0.0000E+00  0.3200E+00
      3.026  0.0000E+00  0.3200E+00
      3.499  0.0000E+00  0.3200E+00
      3.971  0.0000E+00  0.3200E+00
      4.444  0.0000E+00  0.3200E+00
      4.916  0.0000E+00  0.3200E+00
      5.389  0.1026E-04  0.3200E+00
      5.861  0.1712E-01  0.3281E+00
      6.333  0.1574E-01  0.3355E+00
      6.806  0.2692E-01  0.3482E+00
      7.278  0.3927E-01  0.3668E+00
      7.751  0.1960E-01  0.3761E+00
      8.223  0.3927E-03  0.3763E+00
      8.696  0.2661E-01  0.3888E+00
      9.168  0.5203E-02  0.3913E+00
      9.641  0.1630E-01  0.3990E+00
     10.113  0.2162E-02  0.4000E+00
     10.585  0.2204E-01  0.4104E+00
     11.058  0.5504E-01  0.4364E+00
     11.530  0.2549E-01  0.4485E+00
     12.003  0.9096E-02  0.4528E+00
     12.475  0.6969E-01  0.4857E+00
     12.948  0.3295E-01  0.5012E+00
     13.420  0.1879E-01  0.5101E+00
     13.893  0.1379E-01  0.5166E+00
     14.365  0.3885E-01  0.5350E+00
     14.838  0.5992E-01  0.5633E+00
     15.310  0.2320E-01  0.5743E+00
     15.782  0.2754E-01  0.5873E+00
     16.255  0.5068E-01  0.6112E+00
     16.727  0.5609E-04  0.6113E+00
     17.200  0.7841E-01  0.6483E+00
     17.672  0.8827E-01  0.6900E+00
     18.145  0.2039E-01  0.6996E+00
     18.617  0.1136E-01  0.7050E+00
     19.090  0.2639E-02  0.7062E+00
     19.562  0.1473E-01  0.7132E+00
     20.034  0.2456E-01  0.7248E+00
     20.507  0.3868E-01  0.7431E+00
     20.979  0.7842E-01  0.7801E+00
     21.452  0.2642E-01  0.7926E+00
     21.924  0.3490E-01  0.8091E+00
     22.397  0.1230E-01  0.8149E+00
     22.869  0.3524E-01  0.8316E+00
     23.342  0.2033E-01  0.8412E+00
     23.814  0.2028E-01  0.8507E+00
     24.287  0.2836E-01  0.8641E+00
     24.759  0.3848E-01  0.8823E+00
     25.231  0.2422E-01  0.8938E+00
     25.704  0.4024E-01  0.9128E+00
     26.176  0.4030E-01  0.9318E+00
     26.649  0.2221E-01  0.9423E+00
     27.121  0.2638E-01  0.9548E+00
     27.594  0.1382E-02  0.9554E+00
     28.066  0.3757E-01  0.9732E+00
     28.539  0.6874E-01  0.1006E+01
     29.011  0.5341E-01  0.1031E+01
     29.484  0.6160E-01  0.1060E+01
     29.956  0.6230E-01  0.1089E+01
     30.428  0.2385E-01  0.1101E+01
     30.901  0.6436E-01  0.1131E+01
     31.373  0.3207E-01  0.1146E+01
     31.846  0.2377E-01  0.1157E+01
     32.318  0.3118E-01  0.1172E+01
     32.791  0.3984E-01  0.1191E+01
     33.263  0.1489E-01  0.1198E+01
     33.736  0.2279E-01  0.1209E+01
     34.208  0.5802E-01  0.1236E+01
     34.680  0.3525E-03  0.1236E+01
     35.153  0.1558E-01  0.1244E+01
     35.625  0.2100E-01  0.1254E+01
     36.098  0.5650E-01  0.1280E+01
     36.570  0.1310E-01  0.1287E+01
     37.043  0.4007E-01  0.1306E+01
     37.515  0.4791E-01  0.1328E+01
     37.988  0.4361E-01  0.1349E+01
     38.460  0.3713E-01  0.1366E+01
     38.933  0.6336E-01  0.1396E+01
     39.405  0.1113E-01  0.1401E+01
     39.877  0.5023E-02  0.1404E+01
     40.350  0.7099E-01  0.1437E+01
     40.822  0.2247E-01  0.1448E+01
     41.295  0.4635E-01  0.1470E+01
     41.767  0.1107E-01  0.1475E+01
     42.240  0.6141E-01  0.1504E+01
     42.712  0.4974E-01  0.1528E+01
     43.185  0.3166E-01  0.1543E+01
     43.657  0.3831E-01  0.1561E+01
     44.130  0.6961E-01  0.1594E+01
     44.602  0.3736E-01  0.1611E+01
     45.074  0.2033E-01  0.1621E+01
     45.547  0.5607E-01  0.1647E+01
     46.019  0.4722E-01  0.1670E+01
     46.492  0.8468E-01  0.1710E+01
     46.964  0.3719E-01  0.1727E+01
     47.437  0.2702E-01  0.1740E+01
     47.909  0.4282E-01  0.1760E+01
     48.382  0.1894E-01  0.1769E+01
     48.854  0.4794E-01  0.1792E+01
     49.326  0.1125E+00  0.1845E+01
     49.799  0.9689E-02  0.1850E+01
     50.271  0.2190E-01  0.1860E+01
     50.744  0.4787E-01  0.1883E+01
     51.216  0.2545E-01  0.1895E+01
     51.689  0.5704E-01  0.1921E+01
     52.161  0.8216E-01  0.1960E+01
     52.634  0.2850E-01  0.1974E+01
     53.106  0.3490E-01  0.1990E+01
     53.579  0.6208E-01  0.2020E+01
     54.051  0.2115E-01  0.2030E+01
     54.523  0.4162E-01  0.2049E+01
     54.996  0.2665E-01  0.2062E+01
     55.468  0.2142E-01  0.2072E+01
     55.941  0.4738E-01  0.2094E+01
     56.413  0.3580E-01  0.2111E+01
     56.886  0.3925E-01  0.2130E+01
     57.358  0.9425E-01  0.2174E+01
     57.831  0.4769E-01  0.2197E+01
     58.303  0.8697E-01  0.2238E+01
     58.775  0.3929E-01  0.2256E+01
     59.248  0.8708E-01  0.2298E+01
     59.720  0.1294E-01  0.2304E+01
     60.193  0.4412E-01  0.2325E+01
     60.665  0.3645E-01  0.2342E+01
     61.138  0.1836E-01  0.2350E+01
     61.610  0.5738E-01  0.2378E+01
     62.083  0.3113E-01  0.2392E+01
     62.555  0.4521E-01  0.2414E+01
     63.028  0.1649E-01  0.2421E+01
     63.500  0.1093E+00  0.2473E+01
     63.972  0.5604E-01  0.2500E+01
     64.445  0.4285E-01  0.2520E+01
     64.917  0.4389E-01  0.2541E+01
     65.390  0.2781E-01  0.2554E+01
     65.862  0.6597E-02  0.2557E+01
     66.335  0.1131E+00  0.2610E+01
     66.807  0.5606E-01  0.2637E+01
     67.280  0.7356E-01  0.2671E+01
     67.752  0.5512E-01  0.2698E+01
     68.225  0.4584E-01  0.2719E+01
     68.697  0.2179E-01  0.2729E+01
     69.169  0.1183E+00  0.2785E+01
     69.642  0.2416E-01  0.2797E+01
     70.114  0.1508E-02  0.2798E+01
     70.587  0.5493E-02  0.2800E+01
     71.059  0.2627E-01  0.2813E+01
     71.532  0.8481E-01  0.2853E+01
     72.004  0.7103E-01  0.2886E+01
     72.477  0.2977E-01  0.2900E+01
     72.949  0.8010E-01  0.2938E+01
     73.421  0.2293E-01  0.2949E+01
     73.894  0.3759E-01  0.2967E+01
     74.366  0.7423E-01  0.3002E+01
     74.839  0.7699E-01  0.3038E+01
     75.311  0.9614E-01  0.3084E+01
     75.784  0.5003E-01  0.3107E+01
     76.256  0.4642E-01  0.3129E+01
     76.729  0.3535E-01  0.3146E+01
     77.201  0.4610E-01  0.3168E+01
     77.674  0.4738E-01  0.3190E+01
     78.146  0.3501E-01  0.3206E+01
     78.618  0.7623E-01  0.3242E+01
     79.091  0.2566E-01  0.3255E+01
     79.563  0.7467E-01  0.3290E+01
     80.036  0.4680E-01  0.3312E+01
     80.508  0.1243E+00  0.3371E+01
     80.981  0.4048E-01  0.3390E+01
     81.453  0.2660E-01  0.3402E+01
     81.926  0.4751E-01  0.3425E+01
     82.398  0.7583E-01  0.3461E+01
     82.871  0.5873E-01  0.3488E+01
     83.343  0.1685E-02  0.3489E+01
     83.815  0.3423E-01  0.3505E+01
     84.288  0.1006E+00  0.3553E+01
     84.760  0.8446E-01  0.3593E+01
     85.233  0.6380E-01  0.3623E+01
     85.705  0.8470E-01  0.3663E+01
     86.178  0.6563E-01  0.3694E+01
     86.650  0.9665E-01  0.3740E+01
     87.123  0.1579E-01  0.3747E+01
     87.595  0.2980E-01  0.3761E+01
     88.067  0.2378E-01  0.3772E+01
     88.540  0.6466E-01  0.3803E+01
     89.012  0.7216E-01  0.3837E+01
     89.485  0.5070E-01  0.3861E+01
     89.957  0.2415E-01  0.3872E+01
     90.430  0.4314E-01  0.3893E+01
     90.902  0.7297E-01  0.3927E+01
     91.375  0.1522E-01  0.3934E+01
     91.847  0.5135E-01  0.3959E+01
     92.320  0.4312E-01  0.3979E+01
     92.792  0.3807E-01  0.3997E+01
     93.264  0.8539E-01  0.4037E+01
     93.737  0.3658E-01  0.4055E+01
     94.209  0.7496E-01  0.4090E+01
     94.682  0.1579E-01  0.4098E+01
     95.154  0.7216E-01  0.4132E+01
     95.627  0.7940E-01  0.4169E+01
     96.099  0.7545E-01  0.4205E+01
     96.572  0.8950E-01  0.4247E+01
     97.044  0.1003E+00  0.4295E+01
     97.517  0.4023E-01  0.4314E+01
     97.989  0.5025E-01  0.4337E+01
     98.461  0.8738E-01  0.4379E+01
     98.934  0.1219E+00  0.4436E+01
     99.406  0.1130E-01  0.4442E+01
     99.879  0.8079E-01  0.4480E+01
    100.351  0.5643E-01  0.4506E+01
    100.824  0.3695E-01  0.4524E+01
    101.296  0.1168E+00  0.4579E+01
    101.769  0.6017E-01  0.4607E+01
    102.241  0.2667E-01  0.4620E+01
    102.713  0.4142E-01  0.4640E+01
    103.186  0.4584E-01  0.4661E+01
    103.658  0.3735E-01  0.4679E+01
    104.131  0.1026E+00  0.4727E+01
    104.603  0.7260E-01  0.4762E+01
    105.076  0.3682E-01  0.4779E+01
    105.548  0.6021E-01  0.4807E+01
    106.021  0.5805E-01  0.4835E+01
    106.493  0.4539E-01  0.4856E+01
    106.966  0.7460E-01  0.4892E+01
    107.438  0.4684E-01  0.4914E+01
    107.910  0.8597E-01  0.4954E+01
    108.383  0.1133E+00  0.5008E+01
    108.855  0.2556E-01  0.5020E+01
    109.328  0.2954E-01  0.5034E+01
    109.800  0.2416E-01  0.5045E+01
    110.273  0.3461E-01  0.5062E+01
    110.745  0.4180E-01  0.5081E+01
    111.218  0.2605E-01  0.5094E+01
    111.690  0.6132E-02  0.5097E+01
    112.162  0.1812E-01  0.5105E+01
    112.635  0.3130E-01  0.5120E+01
    113.107  0.1683E-06  0.5120E+01
    113.580  0.0000E+00  0.5120E+01
    114.052  0.0000E+00  0.5120E+01
    114.525  0.0000E+00  0.5120E+01
    114.997  0.0000E+00  0.5120E+01
    115.470  0.0000E+00  0.5120E+01
    115.942  0.0000E+00  0.5120E+01
    116.415  0.0000E+00  0.5120E+01
    116.887  0.0000E+00  0.5120E+01
    117.359  0.0000E+00  0.5120E+01
    117.832  0.0000E+00  0.5120E+01
    118.304  0.0000E+00  0.5120E+01
    118.777  0.0000E+00  0.5120E+01
