    4    4   50    1
  0.1053315E+02  0.2512428E-09  0.2512428E-09  0.7707265E-09  0.1000000E-15
  1.000000000000000E-004
  CAR 
 unknown system                          
     16      8    128
 
  0.0000000E+00  0.0000000E+00  0.0000000E+00  0.3125000E-01
    1      -16.516057   1.000000
    2      -16.430410   1.000000
    3       -4.533128   1.000000
    4       -3.562500   1.000000
    5       -0.210063   1.000000
    6       -0.210063   1.000000
    7       -0.202817   1.000000
    8       -0.202816   1.000000
    9        5.724498   0.000000
   10        9.703902   0.000000
   11       12.064237   0.000000
   12       12.638229   0.000000
   13       12.638229   0.000000
   14       12.671203   0.000000
   15       12.671203   0.000000
   16       13.742535   0.000000
   17       15.056674   0.000000
   18       15.849749   0.000000
   19       18.892379   0.000000
   20       24.670734   0.000000
   21       26.256409   0.000000
   22       26.718485   0.000000
   23       29.888614   0.000000
   24       29.888614   0.000000
   25       31.927506   0.000000
   26       31.927506   0.000000
   27       32.357565   0.000000
   28       32.666597   0.000000
   29       32.666597   0.000000
   30       33.856843   0.000000
   31       35.858936   0.000000
   32       35.858936   0.000000
   33       35.989158   0.000000
   34       35.989158   0.000000
   35       36.886762   0.000000
   36       36.886762   0.000000
   37       38.282293   0.000000
   38       38.511193   0.000000
   39       39.231124   0.000000
   40       40.460403   0.000000
   41       41.871485   0.000000
   42       43.526634   0.000000
   43       43.526634   0.000000
   44       43.713289   0.000000
   45       43.713289   0.000000
   46       45.975376   0.000000
   47       45.975376   0.000000
   48       48.884021   0.000000
   49       48.884022   0.000000
   50       48.983670   0.000000
   51       51.232020   0.000000
   52       51.232020   0.000000
   53       51.446789   0.000000
   54       51.704685   0.000000
   55       55.101221   0.000000
   56       55.101221   0.000000
   57       55.112655   0.000000
   58       55.558934   0.000000
   59       58.826466   0.000000
   60       61.164103   0.000000
   61       61.164104   0.000000
   62       62.427139   0.000000
   63       62.427139   0.000000
   64       65.071993   0.000000
   65       65.709786   0.000000
   66       65.709786   0.000000
   67       67.908948   0.000000
   68       67.908948   0.000000
   69       68.351643   0.000000
   70       71.545445   0.000000
   71       74.079630   0.000000
   72       74.079630   0.000000
   73       74.461388   0.000000
   74       74.461388   0.000000
   75       78.163861   0.000000
   76       78.747105   0.000000
   77       80.016677   0.000000
   78       80.276712   0.000000
   79       80.378497   0.000000
   80       80.948791   0.000000
   81       80.948791   0.000000
   82       84.330206   0.000000
   83       84.752859   0.000000
   84       84.774438   0.000000
   85       84.774438   0.000000
   86       87.437645   0.000000
   87       87.437645   0.000000
   88       88.547179   0.000000
   89       88.547179   0.000000
   90       90.974150   0.000000
   91       91.314362   0.000000
   92       91.608785   0.000000
   93       91.608785   0.000000
   94       93.737756   0.000000
   95       93.962788   0.000000
   96       93.962788   0.000000
   97       94.410141   0.000000
   98       94.801774   0.000000
   99       94.801774   0.000000
  100       95.054990   0.000000
  101       95.054990   0.000000
  102       95.296595   0.000000
  103       95.296596   0.000000
  104       95.725420   0.000000
  105       96.887074   0.000000
  106       97.594494   0.000000
  107       97.594494   0.000000
  108       98.793526   0.000000
  109       98.793526   0.000000
  110       98.816714   0.000000
  111      101.328349   0.000000
  112      101.328350   0.000000
  113      101.671081   0.000000
  114      104.067472   0.000000
  115      104.067472   0.000000
  116      104.111898   0.000000
  117      105.052340   0.000000
  118      106.645230   0.000000
  119      108.580394   0.000000
  120      108.580395   0.000000
  121      108.867285   0.000000
  122      108.867288   0.000000
  123      110.437770   0.000000
  124      110.939252   0.000000
  125      110.957260   0.000000
  126      111.435242   0.000000
  127      111.524619   0.000000
  128      111.730683   0.000000
 
  0.2500000E+00 -0.3073501E-16  0.0000000E+00  0.1875000E+00
    1      -15.364222   1.000000
    2      -15.292683   1.000000
    3       -3.950420   1.000000
    4       -3.940900   1.000000
    5       -2.939597   1.000000
    6       -2.074796   1.000000
    7       -1.813102   1.000000
    8       -1.800808   1.000000
    9        7.611847   0.000000
   10        9.355005   0.000000
   11       10.353306   0.000000
   12       11.537190   0.000000
   13       12.201445   0.000000
   14       14.029086   0.000000
   15       15.113241   0.000000
   16       17.064343   0.000000
   17       17.104179   0.000000
   18       18.047655   0.000000
   19       20.331975   0.000000
   20       21.220225   0.000000
   21       23.283957   0.000000
   22       24.990210   0.000000
   23       25.234943   0.000000
   24       27.705257   0.000000
   25       28.982944   0.000000
   26       29.260536   0.000000
   27       29.855695   0.000000
   28       30.497818   0.000000
   29       30.787184   0.000000
   30       32.863663   0.000000
   31       35.655416   0.000000
   32       35.927942   0.000000
   33       36.145820   0.000000
   34       37.562505   0.000000
   35       38.248536   0.000000
   36       40.034580   0.000000
   37       40.185214   0.000000
   38       42.461159   0.000000
   39       43.464078   0.000000
   40       43.994083   0.000000
   41       43.995942   0.000000
   42       45.020372   0.000000
   43       45.577846   0.000000
   44       46.234367   0.000000
   45       46.939796   0.000000
   46       48.294839   0.000000
   47       48.992350   0.000000
   48       49.126063   0.000000
   49       49.131688   0.000000
   50       51.235974   0.000000
   51       52.119708   0.000000
   52       54.529060   0.000000
   53       55.995639   0.000000
   54       56.002270   0.000000
   55       56.383065   0.000000
   56       56.858025   0.000000
   57       57.056118   0.000000
   58       57.323417   0.000000
   59       58.062152   0.000000
   60       58.150525   0.000000
   61       60.651922   0.000000
   62       64.114617   0.000000
   63       64.934693   0.000000
   64       66.050657   0.000000
   65       66.161200   0.000000
   66       66.873727   0.000000
   67       67.467153   0.000000
   68       69.004649   0.000000
   69       69.549210   0.000000
   70       72.501572   0.000000
   71       72.863790   0.000000
   72       72.994714   0.000000
   73       73.855087   0.000000
   74       74.647476   0.000000
   75       74.921977   0.000000
   76       76.011123   0.000000
   77       76.230246   0.000000
   78       76.867155   0.000000
   79       77.287612   0.000000
   80       77.506216   0.000000
   81       78.980146   0.000000
   82       79.411526   0.000000
   83       79.752091   0.000000
   84       80.410892   0.000000
   85       80.437288   0.000000
   86       82.435743   0.000000
   87       84.312447   0.000000
   88       84.362745   0.000000
   89       84.737328   0.000000
   90       85.156568   0.000000
   91       85.372305   0.000000
   92       86.193907   0.000000
   93       87.368198   0.000000
   94       89.031165   0.000000
   95       90.236149   0.000000
   96       90.462018   0.000000
   97       91.453909   0.000000
   98       92.076547   0.000000
   99       93.869991   0.000000
  100       95.024959   0.000000
  101       95.209129   0.000000
  102       95.972976   0.000000
  103       96.309944   0.000000
  104       96.781358   0.000000
  105       96.806441   0.000000
  106       97.523332   0.000000
  107       98.129483   0.000000
  108       98.561703   0.000000
  109       98.572001   0.000000
  110       98.805078   0.000000
  111      100.307511   0.000000
  112      100.822568   0.000000
  113      101.130151   0.000000
  114      102.732776   0.000000
  115      102.862343   0.000000
  116      103.595895   0.000000
  117      103.660074   0.000000
  118      104.012720   0.000000
  119      105.471093   0.000000
  120      105.564710   0.000000
  121      105.633331   0.000000
  122      107.566315   0.000000
  123      108.175309   0.000000
  124      108.446896   0.000000
  125      109.341148   0.000000
  126      109.929460   0.000000
  127      110.645334   0.000000
  128      110.720759   0.000000
 
  0.5000000E+00 -0.6147001E-16  0.0000000E+00  0.9375000E-01
    1      -13.425002   1.000000
    2      -13.406113   1.000000
    3       -7.719454   1.000000
    4       -7.700145   1.000000
    5       -2.982622   1.000000
    6       -2.968136   1.000000
    7        0.017584   1.000000
    8        0.430072   1.000000
    9        5.601564   0.000000
   10        6.271721   0.000000
   11       10.531151   0.000000
   12       11.014600   0.000000
   13       13.348699   0.000000
   14       14.120904   0.000000
   15       15.629663   0.000000
   16       17.360522   0.000000
   17       19.717267   0.000000
   18       20.345757   0.000000
   19       21.159358   0.000000
   20       22.677096   0.000000
   21       22.815417   0.000000
   22       23.299152   0.000000
   23       25.805999   0.000000
   24       26.124568   0.000000
   25       26.636459   0.000000
   26       27.010952   0.000000
   27       28.933890   0.000000
   28       29.155353   0.000000
   29       30.422495   0.000000
   30       31.637595   0.000000
   31       31.970221   0.000000
   32       35.324301   0.000000
   33       35.477978   0.000000
   34       38.322924   0.000000
   35       38.656027   0.000000
   36       39.196931   0.000000
   37       40.130486   0.000000
   38       40.970497   0.000000
   39       42.049875   0.000000
   40       43.758298   0.000000
   41       45.062273   0.000000
   42       49.071662   0.000000
   43       51.412919   0.000000
   44       51.741986   0.000000
   45       51.922736   0.000000
   46       53.391245   0.000000
   47       53.819966   0.000000
   48       54.457933   0.000000
   49       54.672456   0.000000
   50       55.214525   0.000000
   51       55.728530   0.000000
   52       57.247104   0.000000
   53       57.615876   0.000000
   54       58.085115   0.000000
   55       58.126140   0.000000
   56       58.699157   0.000000
   57       59.012010   0.000000
   58       59.490916   0.000000
   59       60.008481   0.000000
   60       60.947209   0.000000
   61       61.663834   0.000000
   62       62.056931   0.000000
   63       63.177978   0.000000
   64       64.274377   0.000000
   65       64.518764   0.000000
   66       66.451578   0.000000
   67       66.656840   0.000000
   68       67.570315   0.000000
   69       69.056451   0.000000
   70       70.658957   0.000000
   71       70.707357   0.000000
   72       71.423855   0.000000
   73       71.436868   0.000000
   74       72.222079   0.000000
   75       72.224000   0.000000
   76       72.288972   0.000000
   77       72.936852   0.000000
   78       74.289971   0.000000
   79       74.421701   0.000000
   80       74.715466   0.000000
   81       75.595493   0.000000
   82       77.281952   0.000000
   83       78.152198   0.000000
   84       78.943517   0.000000
   85       79.782051   0.000000
   86       80.435544   0.000000
   87       81.381579   0.000000
   88       81.619984   0.000000
   89       83.424053   0.000000
   90       84.020395   0.000000
   91       84.458259   0.000000
   92       85.845697   0.000000
   93       86.397029   0.000000
   94       86.488385   0.000000
   95       87.031711   0.000000
   96       87.392484   0.000000
   97       87.805294   0.000000
   98       88.326787   0.000000
   99       88.408291   0.000000
  100       88.521994   0.000000
  101       88.947838   0.000000
  102       89.718775   0.000000
  103       90.109235   0.000000
  104       90.555532   0.000000
  105       94.771895   0.000000
  106       96.437875   0.000000
  107       97.559727   0.000000
  108       99.840837   0.000000
  109      100.834878   0.000000
  110      100.903896   0.000000
  111      101.079395   0.000000
  112      102.408430   0.000000
  113      103.489020   0.000000
  114      103.864934   0.000000
  115      103.930829   0.000000
  116      103.953854   0.000000
  117      103.980736   0.000000
  118      104.536065   0.000000
  119      105.016643   0.000000
  120      105.214423   0.000000
  121      105.226891   0.000000
  122      106.577715   0.000000
  123      107.016394   0.000000
  124      107.687954   0.000000
  125      107.778365   0.000000
  126      107.938827   0.000000
  127      108.131580   0.000000
  128      108.323505   0.000000
 
  0.2500000E+00  0.2500000E+00  0.0000000E+00  0.1875000E+00
    1      -13.553810   1.000000
    2      -13.515264   1.000000
    3       -6.435924   1.000000
    4       -6.420923   1.000000
    5       -4.722152   1.000000
    6       -4.706967   1.000000
    7       -0.258423   1.000000
    8        0.295060   1.000000
    9        6.806992   0.000000
   10        6.897360   0.000000
   11       11.179299   0.000000
   12       13.432573   0.000000
   13       14.677812   0.000000
   14       14.779080   0.000000
   15       15.667481   0.000000
   16       16.958719   0.000000
   17       17.325230   0.000000
   18       18.168318   0.000000
   19       19.896411   0.000000
   20       20.405870   0.000000
   21       20.890472   0.000000
   22       22.368427   0.000000
   23       23.711285   0.000000
   24       26.707907   0.000000
   25       28.495501   0.000000
   26       28.697017   0.000000
   27       29.912787   0.000000
   28       30.420824   0.000000
   29       30.511655   0.000000
   30       31.764218   0.000000
   31       32.418737   0.000000
   32       35.873615   0.000000
   33       36.690995   0.000000
   34       40.089910   0.000000
   35       40.191526   0.000000
   36       41.133622   0.000000
   37       41.735355   0.000000
   38       42.856002   0.000000
   39       45.132757   0.000000
   40       45.229374   0.000000
   41       46.149822   0.000000
   42       46.182070   0.000000
   43       46.934650   0.000000
   44       47.194311   0.000000
   45       47.869763   0.000000
   46       50.195881   0.000000
   47       50.423385   0.000000
   48       52.986296   0.000000
   49       53.069010   0.000000
   50       53.465548   0.000000
   51       54.520526   0.000000
   52       55.710537   0.000000
   53       57.535103   0.000000
   54       58.237187   0.000000
   55       58.354597   0.000000
   56       58.801425   0.000000
   57       60.386208   0.000000
   58       61.620131   0.000000
   59       62.057689   0.000000
   60       62.818138   0.000000
   61       63.971685   0.000000
   62       64.557407   0.000000
   63       64.598697   0.000000
   64       65.223885   0.000000
   65       66.035226   0.000000
   66       66.756612   0.000000
   67       66.835621   0.000000
   68       67.419062   0.000000
   69       67.489790   0.000000
   70       68.144036   0.000000
   71       68.756566   0.000000
   72       69.136168   0.000000
   73       71.461950   0.000000
   74       71.754137   0.000000
   75       72.801932   0.000000
   76       74.198655   0.000000
   77       75.037849   0.000000
   78       75.049515   0.000000
   79       75.728420   0.000000
   80       75.971773   0.000000
   81       78.186815   0.000000
   82       78.302994   0.000000
   83       78.379290   0.000000
   84       79.240936   0.000000
   85       81.929513   0.000000
   86       82.129143   0.000000
   87       82.360660   0.000000
   88       82.440741   0.000000
   89       83.747403   0.000000
   90       84.028759   0.000000
   91       84.751912   0.000000
   92       85.416692   0.000000
   93       85.418619   0.000000
   94       88.164727   0.000000
   95       88.519648   0.000000
   96       88.756598   0.000000
   97       88.917819   0.000000
   98       88.974446   0.000000
   99       89.156918   0.000000
  100       89.561923   0.000000
  101       90.729052   0.000000
  102       92.058817   0.000000
  103       92.861982   0.000000
  104       93.209685   0.000000
  105       93.211137   0.000000
  106       93.560429   0.000000
  107       93.875907   0.000000
  108       94.766543   0.000000
  109       95.687171   0.000000
  110       96.163240   0.000000
  111       96.303302   0.000000
  112       97.171127   0.000000
  113       98.130799   0.000000
  114       98.310370   0.000000
  115       98.533021   0.000000
  116       99.601411   0.000000
  117      100.381607   0.000000
  118      100.949692   0.000000
  119      102.029186   0.000000
  120      102.936656   0.000000
  121      104.464996   0.000000
  122      105.151951   0.000000
  123      106.454905   0.000000
  124      106.678806   0.000000
  125      107.933035   0.000000
  126      108.247680   0.000000
  127      110.822814   0.000000
  128      111.861680   0.000000
 
  0.0000000E+00  0.0000000E+00  0.5000000E+00  0.3125000E-01
    1      -16.473700   1.000000
    2      -16.473700   1.000000
    3       -4.084518   1.000000
    4       -4.084518   1.000000
    5       -0.206343   1.000000
    6       -0.206343   1.000000
    7       -0.206343   1.000000
    8       -0.206343   1.000000
    9        7.332650   0.000000
   10        7.332650   0.000000
   11       12.654844   0.000000
   12       12.654844   0.000000
   13       12.654844   0.000000
   14       12.654844   0.000000
   15       13.244498   0.000000
   16       13.244498   0.000000
   17       15.365453   0.000000
   18       15.365453   0.000000
   19       21.569274   0.000000
   20       21.569274   0.000000
   21       26.563506   0.000000
   22       26.563506   0.000000
   23       30.657305   0.000000
   24       30.657305   0.000000
   25       30.657305   0.000000
   26       30.657305   0.000000
   27       33.315879   0.000000
   28       33.315879   0.000000
   29       33.609467   0.000000
   30       33.609467   0.000000
   31       33.609467   0.000000
   32       33.609467   0.000000
   33       38.632847   0.000000
   34       38.632847   0.000000
   35       38.719377   0.000000
   36       38.719377   0.000000
   37       38.719377   0.000000
   38       38.719377   0.000000
   39       39.495464   0.000000
   40       39.495464   0.000000
   41       40.750827   0.000000
   42       40.750827   0.000000
   43       40.750827   0.000000
   44       40.750827   0.000000
   45       45.766367   0.000000
   46       45.766367   0.000000
   47       49.705181   0.000000
   48       49.705181   0.000000
   49       49.705181   0.000000
   50       49.705181   0.000000
   51       50.249775   0.000000
   52       50.249775   0.000000
   53       53.042993   0.000000
   54       53.042993   0.000000
   55       53.042993   0.000000
   56       53.042993   0.000000
   57       55.074564   0.000000
   58       55.074564   0.000000
   59       59.028778   0.000000
   60       59.028778   0.000000
   61       59.028778   0.000000
   62       59.028778   0.000000
   63       65.921902   0.000000
   64       65.921902   0.000000
   65       68.307109   0.000000
   66       68.307109   0.000000
   67       71.268558   0.000000
   68       71.268558   0.000000
   69       71.268558   0.000000
   70       71.268558   0.000000
   71       74.035697   0.000000
   72       74.035697   0.000000
   73       74.710026   0.000000
   74       74.710026   0.000000
   75       74.710026   0.000000
   76       74.710026   0.000000
   77       76.911756   0.000000
   78       76.911756   0.000000
   79       76.911756   0.000000
   80       76.911756   0.000000
   81       80.327650   0.000000
   82       80.327650   0.000000
   83       86.193023   0.000000
   84       86.193023   0.000000
   85       88.659848   0.000000
   86       88.659848   0.000000
   87       90.542645   0.000000
   88       90.542645   0.000000
   89       90.542645   0.000000
   90       90.542645   0.000000
   91       91.075972   0.000000
   92       91.075972   0.000000
   93       93.474641   0.000000
   94       93.474641   0.000000
   95       93.474641   0.000000
   96       93.474641   0.000000
   97       95.876877   0.000000
   98       95.876877   0.000000
   99       95.876878   0.000000
  100       95.876878   0.000000
  101       96.776276   0.000000
  102       96.776276   0.000000
  103       98.164060   0.000000
  104       98.164060   0.000000
  105       99.896851   0.000000
  106       99.896851   0.000000
  107       99.896851   0.000000
  108       99.896851   0.000000
  109      100.968829   0.000000
  110      100.968829   0.000000
  111      100.968830   0.000000
  112      100.968830   0.000000
  113      101.308619   0.000000
  114      101.308619   0.000000
  115      101.928704   0.000000
  116      101.928704   0.000000
  117      101.928704   0.000000
  118      101.928704   0.000000
  119      104.927940   0.000000
  120      104.927940   0.000000
  121      104.927940   0.000000
  122      104.927940   0.000000
  123      105.476551   0.000000
  124      105.476552   0.000000
  125      107.351317   0.000000
  126      107.351828   0.000000
  127      108.845031   0.000000
  128      108.845031   0.000000
 
  0.2500000E+00 -0.3073501E-16  0.5000000E+00  0.1875000E+00
    1      -15.328824   1.000000
    2      -15.328824   1.000000
    3       -3.948746   1.000000
    4       -3.948746   1.000000
    5       -2.531147   1.000000
    6       -2.531147   1.000000
    7       -1.806975   1.000000
    8       -1.806975   1.000000
    9        8.625868   0.000000
   10        8.625868   0.000000
   11       10.919477   0.000000
   12       10.919477   0.000000
   13       12.328486   0.000000
   14       12.328486   0.000000
   15       17.083740   0.000000
   16       17.083740   0.000000
   17       17.323352   0.000000
   18       17.323352   0.000000
   19       20.788349   0.000000
   20       20.788349   0.000000
   21       24.565165   0.000000
   22       24.565165   0.000000
   23       26.107401   0.000000
   24       26.107401   0.000000
   25       28.293822   0.000000
   26       28.293822   0.000000
   27       29.752121   0.000000
   28       29.752121   0.000000
   29       33.780637   0.000000
   30       33.780637   0.000000
   31       33.932922   0.000000
   32       33.932922   0.000000
   33       37.021447   0.000000
   34       37.021447   0.000000
   35       40.853064   0.000000
   36       40.853064   0.000000
   37       42.117946   0.000000
   38       42.117946   0.000000
   39       42.399176   0.000000
   40       42.399176   0.000000
   41       44.056295   0.000000
   42       44.056295   0.000000
   43       46.493025   0.000000
   44       46.493025   0.000000
   45       48.637829   0.000000
   46       48.637829   0.000000
   47       48.886564   0.000000
   48       48.886564   0.000000
   49       50.354730   0.000000
   50       50.354730   0.000000
   51       51.339988   0.000000
   52       51.339988   0.000000
   53       51.964349   0.000000
   54       51.964349   0.000000
   55       56.929475   0.000000
   56       56.929475   0.000000
   57       59.176814   0.000000
   58       59.176814   0.000000
   59       63.207870   0.000000
   60       63.207870   0.000000
   61       63.212668   0.000000
   62       63.212668   0.000000
   63       63.919716   0.000000
   64       63.919716   0.000000
   65       66.233144   0.000000
   66       66.233144   0.000000
   67       68.916411   0.000000
   68       68.916411   0.000000
   69       69.089819   0.000000
   70       69.089819   0.000000
   71       71.834245   0.000000
   72       71.834245   0.000000
   73       72.750519   0.000000
   74       72.750519   0.000000
   75       74.132894   0.000000
   76       74.132894   0.000000
   77       75.415659   0.000000
   78       75.415659   0.000000
   79       79.379452   0.000000
   80       79.379452   0.000000
   81       80.374697   0.000000
   82       80.374697   0.000000
   83       81.555359   0.000000
   84       81.555359   0.000000
   85       82.225575   0.000000
   86       82.225575   0.000000
   87       83.887331   0.000000
   88       83.887331   0.000000
   89       85.544046   0.000000
   90       85.544046   0.000000
   91       86.164022   0.000000
   92       86.164022   0.000000
   93       86.603971   0.000000
   94       86.603971   0.000000
   95       90.814347   0.000000
   96       90.814347   0.000000
   97       93.099684   0.000000
   98       93.099684   0.000000
   99       95.386152   0.000000
  100       95.386152   0.000000
  101       95.792498   0.000000
  102       95.792498   0.000000
  103       96.640712   0.000000
  104       96.640712   0.000000
  105       96.758705   0.000000
  106       96.758705   0.000000
  107       97.862688   0.000000
  108       97.862688   0.000000
  109       98.468683   0.000000
  110       98.468683   0.000000
  111       98.599458   0.000000
  112       98.599458   0.000000
  113       99.830342   0.000000
  114       99.830342   0.000000
  115      102.639998   0.000000
  116      102.639998   0.000000
  117      104.389041   0.000000
  118      104.389041   0.000000
  119      105.840710   0.000000
  120      105.840710   0.000000
  121      106.323847   0.000000
  122      106.323847   0.000000
  123      107.928112   0.000000
  124      107.928112   0.000000
  125      109.318968   0.000000
  126      109.318968   0.000000
  127      112.306904   0.000000
  128      112.334291   0.000000
 
  0.5000000E+00 -0.6147001E-16  0.5000000E+00  0.9375000E-01
    1      -13.415464   1.000000
    2      -13.415464   1.000000
    3       -7.710379   1.000000
    4       -7.710379   1.000000
    5       -2.975350   1.000000
    6       -2.975350   1.000000
    7        0.224608   1.000000
    8        0.224608   1.000000
    9        5.875761   0.000000
   10        5.875761   0.000000
   11       10.853232   0.000000
   12       10.853232   0.000000
   13       14.027545   0.000000
   14       14.027545   0.000000
   15       15.984818   0.000000
   16       15.984818   0.000000
   17       19.462626   0.000000
   18       19.462626   0.000000
   19       22.708081   0.000000
   20       22.708081   0.000000
   21       23.991309   0.000000
   22       23.991309   0.000000
   23       24.245488   0.000000
   24       24.245488   0.000000
   25       28.283228   0.000000
   26       28.283228   0.000000
   27       28.695032   0.000000
   28       28.695032   0.000000
   29       31.954734   0.000000
   30       31.954734   0.000000
   31       32.519930   0.000000
   32       32.519930   0.000000
   33       34.822759   0.000000
   34       34.822759   0.000000
   35       38.733077   0.000000
   36       38.733077   0.000000
   37       42.123937   0.000000
   38       42.123937   0.000000
   39       45.399536   0.000000
   40       45.399536   0.000000
   41       46.359748   0.000000
   42       46.359748   0.000000
   43       51.039167   0.000000
   44       51.039167   0.000000
   45       51.843199   0.000000
   46       51.843199   0.000000
   47       53.997554   0.000000
   48       53.997554   0.000000
   49       54.353751   0.000000
   50       54.353751   0.000000
   51       55.570161   0.000000
   52       55.570161   0.000000
   53       56.774611   0.000000
   54       56.774611   0.000000
   55       58.299486   0.000000
   56       58.299486   0.000000
   57       59.994365   0.000000
   58       59.994365   0.000000
   59       61.489128   0.000000
   60       61.489128   0.000000
   61       63.515650   0.000000
   62       63.515650   0.000000
   63       63.892657   0.000000
   64       63.892657   0.000000
   65       66.669385   0.000000
   66       66.669385   0.000000
   67       66.974483   0.000000
   68       66.974483   0.000000
   69       68.749928   0.000000
   70       68.749928   0.000000
   71       70.635106   0.000000
   72       70.635106   0.000000
   73       71.333279   0.000000
   74       71.333279   0.000000
   75       71.545363   0.000000
   76       71.545363   0.000000
   77       75.118280   0.000000
   78       75.118280   0.000000
   79       76.362153   0.000000
   80       76.362153   0.000000
   81       78.189523   0.000000
   82       78.189523   0.000000
   83       78.442196   0.000000
   84       78.442196   0.000000
   85       79.531786   0.000000
   86       79.531786   0.000000
   87       79.778208   0.000000
   88       79.778208   0.000000
   89       80.347262   0.000000
   90       80.347262   0.000000
   91       81.357449   0.000000
   92       81.357449   0.000000
   93       83.842605   0.000000
   94       83.842605   0.000000
   95       89.191364   0.000000
   96       89.191364   0.000000
   97       90.030133   0.000000
   98       90.030133   0.000000
   99       92.278957   0.000000
  100       92.278957   0.000000
  101       93.142868   0.000000
  102       93.142868   0.000000
  103       94.235728   0.000000
  104       94.235728   0.000000
  105       95.284977   0.000000
  106       95.284977   0.000000
  107       97.146417   0.000000
  108       97.146417   0.000000
  109       98.370758   0.000000
  110       98.370758   0.000000
  111       98.956667   0.000000
  112       98.956667   0.000000
  113      101.237916   0.000000
  114      101.237916   0.000000
  115      101.577223   0.000000
  116      101.577223   0.000000
  117      103.669237   0.000000
  118      103.669237   0.000000
  119      104.367922   0.000000
  120      104.367922   0.000000
  121      104.990383   0.000000