       N       E                     dE             d eps       ncg     rms          rms(c)
DAV:   1     0.116906423950E+03    0.11691E+03   -0.27939E+03  2048   0.111E+02
DAV:   2    -0.333121363437E+02   -0.15022E+03   -0.13363E+03  2448   0.588E+01
DAV:   3    -0.388313605768E+02   -0.55192E+01   -0.54492E+01  2408   0.113E+01
DAV:   4    -0.388375754524E+02   -0.62149E-02   -0.62142E-02  2392   0.359E-01
DAV:   5    -0.388375770888E+02   -0.16364E-05   -0.16364E-05  2368   0.601E-03    0.112E+01
DAV:   6    -0.355973860618E+02    0.32402E+01   -0.75023E-02  2696   0.220E+00    0.532E+00
DAV:   7    -0.352578797299E+02    0.33951E+00   -0.37600E-02  2416   0.467E-01    0.307E+00
DAV:   8    -0.351587165578E+02    0.99163E-01   -0.94620E-03  2328   0.389E-01    0.360E-01
DAV:   9    -0.351607714585E+02   -0.20549E-02   -0.20832E-03  2256   0.934E-02    0.131E-01
DAV:  10    -0.351616511793E+02   -0.87972E-03   -0.14707E-04  2344   0.217E-02    0.373E-02
DAV:  11    -0.351617571735E+02   -0.10599E-03   -0.15792E-05  2320   0.706E-03    0.137E-02
DAV:  12    -0.351617689393E+02   -0.11766E-04   -0.23827E-06  2336   0.246E-03    0.260E-03
DAV:  13    -0.351617695329E+02   -0.59361E-06   -0.13686E-07  2336   0.588E-04
   1 F= -.35161743E+02 E0= -.35161743E+02  d E =-.351617E+02
