<?xml version="1.0" encoding="ISO-8859-1"?>
<modeling>
 <generator>
  <i name="program" type="string">vasp </i>
  <i name="version" type="string">6.2.1  </i>
  <i name="subversion" type="string">16May21 (build Oct 21 2023 21:03:18) complex                          parallel </i>
  <i name="platform" type="string">LinuxIFC </i>
  <i name="date" type="string">2023 12 15 </i>
  <i name="time" type="string">17:04:28 </i>
 </generator>
 <incar>
  <i type="int" name="ISTART">     0</i>
  <i type="string" name="PREC">Accurate</i>
  <i type="int" name="IALGO">    48</i>
  <i type="string" name="ALGO">Normal</i>
  <i type="int" name="NSIM">     4</i>
  <i type="int" name="IBRION">     2</i>
  <i name="EDIFF">      0.00000100</i>
  <i name="EDIFFG">     -0.02000000</i>
  <i type="int" name="NSW">    50</i>
  <i type="int" name="ISIF">     3</i>
  <i type="int" name="ISYM">     2</i>
  <i name="ENCUT">    520.00000000</i>
  <i type="int" name="NBANDS">   128</i>
  <i name="POTIM">      0.10000000</i>
  <i type="logical" name="LPLANE"> T  </i>
  <i type="int" name="ISMEAR">     0</i>
  <i name="SIGMA">      0.10000000</i>
  <i name="PSTRESS">      0.00100000</i>
  <i type="logical" name="LWAVE"> F  </i>
  <i type="logical" name="LCHARG"> F  </i>
 </incar>
 <primitive_cell>
  <structure name="primitive_cell" >
   <crystal>
    <varray name="basis" >
     <v>       2.51242823       0.00000000       0.00000000 </v>
     <v>      -1.25621411       2.17582667       0.00000000 </v>
     <v>       0.00000000       0.00000000       7.70726500 </v>
    </varray>
    <i name="volume">     42.13259925 </i>
    <varray name="rec_basis" >
     <v>       0.39802132       0.22979772       0.00000000 </v>
     <v>       0.00000000       0.45959543       0.00000000 </v>
     <v>       0.00000000       0.00000000       0.12974771 </v>
    </varray>
   </crystal>
   <varray name="positions" >
    <v>       0.33333333       0.66666667       0.25000000 </v>
    <v>       0.66666667       0.33333333       0.75000000 </v>
    <v>       0.33333333       0.66666667       0.75000000 </v>
    <v>       0.66666667       0.33333333       0.25000000 </v>
   </varray>
  </structure>
  <varray name="primitive_index" >
   <v type="int" >        1 </v>
   <v type="int" >        2 </v>
   <v type="int" >        3 </v>
   <v type="int" >        4 </v>
  </varray>
 </primitive_cell>
 <kpoints>
  <generation param="Gamma">
   <v type="int" name="divisions">       4        4        2 </v>
   <v name="usershift">      0.00000000       0.00000000       0.00000000 </v>
   <v name="genvec1">      0.25000000      -0.00000000       0.00000000 </v>
   <v name="genvec2">      0.00000000       0.25000000       0.00000000 </v>
   <v name="genvec3">      0.00000000       0.00000000       0.50000000 </v>
   <v name="shift">      0.00000000       0.00000000       0.00000000 </v>
  </generation>
  <varray name="kpointlist" >
   <v>       0.00000000       0.00000000       0.00000000 </v>
   <v>       0.25000000      -0.00000000       0.00000000 </v>
   <v>       0.50000000      -0.00000000       0.00000000 </v>
   <v>       0.25000000       0.25000000       0.00000000 </v>
   <v>       0.00000000       0.00000000       0.50000000 </v>
   <v>       0.25000000      -0.00000000       0.50000000 </v>
   <v>       0.50000000      -0.00000000       0.50000000 </v>
   <v>       0.25000000       0.25000000       0.50000000 </v>
  </varray>
  <varray name="weights" >
   <v>       0.03125000 </v>
   <v>       0.18750000 </v>
   <v>       0.09375000 </v>
   <v>       0.18750000 </v>
   <v>       0.03125000 </v>
   <v>       0.18750000 </v>
   <v>       0.09375000 </v>
   <v>       0.18750000 </v>
  </varray>
 </kpoints>
 <parameters>
  <separator name="general" >
   <i type="string" name="SYSTEM">unknown system</i>
   <i type="logical" name="LCOMPAT"> F  </i>
  </separator>
  <separator name="electronic" >
   <i type="string" name="PREC">accura</i>
   <i name="ENMAX">    520.00000000</i>
   <i name="ENAUG">    627.11200000</i>
   <i name="EDIFF">      0.00000100</i>
   <i type="int" name="IALGO">    38</i>
   <i type="int" name="IWAVPR">    11</i>
   <i type="int" name="NBANDS">   128</i>
   <i type="int" name="NBANDSLOW">    -1</i>
   <i type="int" name="NBANDSHIGH">    -1</i>
   <i name="NELECT">     16.00000000</i>
   <i type="int" name="TURBO">     0</i>
   <i type="int" name="IRESTART">     0</i>
   <i type="int" name="NREBOOT">     0</i>
   <i type="int" name="NMIN">     0</i>
   <i name="EREF">      0.00000000</i>
   <separator name="electronic smearing" >
    <i type="int" name="ISMEAR">     0</i>
    <i name="SIGMA">      0.10000000</i>
    <i name="KSPACING">      0.50000000</i>
    <i type="logical" name="KGAMMA"> T  </i>
    <i type="logical" name="KBLOWUP"> T  </i>
   </separator>
   <separator name="electronic projectors" >
    <i type="logical" name="LREAL"> F  </i>
    <v name="ROPT">      0.00000000      0.00000000</v>
    <i type="int" name="LMAXPAW">  -100</i>
    <i type="int" name="LMAXMIX">     2</i>
    <i type="logical" name="NLSPLINE"> F  </i>
   </separator>
   <separator name="electronic startup" >
    <i type="int" name="ISTART">     0</i>
    <i type="int" name="ICHARG">     2</i>
    <i type="int" name="INIWAV">     1</i>
   </separator>
   <separator name="electronic spin" >
    <i type="int" name="ISPIN">     1</i>
    <i type="logical" name="LNONCOLLINEAR"> F  </i>
    <v name="MAGMOM">      1.00000000      1.00000000      1.00000000      1.00000000</v>
    <i name="NUPDOWN">     -1.00000000</i>
    <i type="logical" name="LSORBIT"> F  </i>
    <v name="SAXIS">      0.00000000      0.00000000      1.00000000</v>
    <i type="logical" name="LSPIRAL"> F  </i>
    <v name="QSPIRAL">      0.00000000      0.00000000      0.00000000</v>
    <i type="logical" name="LZEROZ"> F  </i>
   </separator>
   <separator name="electronic exchange-correlation" >
    <i type="logical" name="LASPH"> F  </i>
    <i type="logical" name="LMETAGGA"> F  </i>
   </separator>
   <separator name="electronic convergence" >
    <i type="int" name="NELM">    60</i>
    <i type="int" name="NELMDL">    -5</i>
    <i type="int" name="NELMIN">     2</i>
    <i name="ENINI">    520.00000000</i>
    <separator name="electronic convergence detail" >
     <i type="logical" name="LDIAG"> T  </i>
     <i type="logical" name="LSUBROT"> F  </i>
     <i name="WEIMIN">      0.00100000</i>
     <i name="EBREAK">      0.00000000</i>
     <i name="DEPER">      0.30000000</i>
     <i type="int" name="NRMM">     4</i>
     <i name="TIME">      0.40000000</i>
    </separator>
   </separator>
   <separator name="electronic mixer" >
    <i name="AMIX">      0.40000000</i>
    <i name="BMIX">      1.00000000</i>
    <i name="AMIN">      0.10000000</i>
    <i name="AMIX_MAG">      1.60000000</i>
    <i name="BMIX_MAG">      1.00000000</i>
    <separator name="electronic mixer details" >
     <i type="int" name="IMIX">     4</i>
     <i type="logical" name="MIXFIRST"> F  </i>
     <i type="int" name="MAXMIX">   -45</i>
     <i name="WC">    100.00000000</i>
     <i type="int" name="INIMIX">     1</i>
     <i type="int" name="MIXPRE">     1</i>
     <i type="int" name="MREMOVE">     5</i>
    </separator>
   </separator>
   <separator name="electronic dipolcorrection" >
    <i type="logical" name="LDIPOL"> F  </i>
    <i type="logical" name="LMONO"> F  </i>
    <i type="int" name="IDIPOL">     0</i>
    <i name="EPSILON">      1.00000000</i>
    <v name="DIPOL">   -100.00000000   -100.00000000   -100.00000000</v>
    <i name="EFIELD">      0.00000000</i>
   </separator>
  </separator>
  <separator name="grids" >
   <i type="int" name="NGX">    20</i>
   <i type="int" name="NGY">    20</i>
   <i type="int" name="NGZ">    60</i>
   <i type="int" name="NGXF">    40</i>
   <i type="int" name="NGYF">    40</i>
   <i type="int" name="NGZF">   120</i>
   <i type="logical" name="ADDGRID"> F  </i>
  </separator>
  <separator name="ionic" >
   <i type="int" name="NSW">    50</i>
   <i type="int" name="IBRION">     2</i>
   <i type="int" name="MDALGO">     0</i>
   <i type="int" name="ISIF">     3</i>
   <i name="PSTRESS">      0.00100000</i>
   <i name="EDIFFG">     -0.02000000</i>
   <i type="int" name="NFREE">     1</i>
   <i name="POTIM">      0.10000000</i>
   <i name="SMASS">     -3.00000000</i>
   <i name="SCALEE">      1.00000000</i>
  </separator>
  <separator name="ionic md" >
   <i name="TEBEG">      0.00010000</i>
   <i name="TEEND">      0.00010000</i>
   <i type="int" name="NBLOCK">     1</i>
   <i type="int" name="KBLOCK">    50</i>
   <i type="int" name="NPACO">   256</i>
   <i name="APACO">     16.00000000</i>
  </separator>
  <separator name="symmetry" >
   <i type="int" name="ISYM">     2</i>
   <i name="SYMPREC">      0.00001000</i>
  </separator>
  <separator name="dos" >
   <i type="int" name="LORBIT">     0</i>
   <v name="RWIGS">     -1.00000000     -1.00000000</v>
   <i type="int" name="NEDOS">   301</i>
   <i name="EMIN">     10.00000000</i>
   <i name="EMAX">    -10.00000000</i>
   <i name="EFERMI">      0.00000000</i>
  </separator>
  <separator name="writing" >
   <i type="int" name="NWRITE">     2</i>
   <i type="logical" name="LWAVE"> F  </i>
   <i type="logical" name="LDOWNSAMPLE"> F  </i>
   <i type="logical" name="LCHARG"> F  </i>
   <i type="logical" name="LPARD"> F  </i>
   <i type="logical" name="LVTOT"> F  </i>
   <i type="logical" name="LVHAR"> F  </i>
   <i type="logical" name="LELF"> F  </i>
   <i type="logical" name="LOPTICS"> F  </i>
   <v name="STM">      0.00000000      0.00000000      0.00000000      0.00000000      0.00000000      0.00000000      0.00000000</v>
  </separator>
  <separator name="performance" >
   <i type="int" name="NPAR">     2</i>
   <i type="int" name="NSIM">     4</i>
   <i type="int" name="NBLK">    -1</i>
   <i type="logical" name="LPLANE"> T  </i>
   <i type="logical" name="LSCALAPACK"> T  </i>
   <i type="logical" name="LSCAAWARE"> F  </i>
   <i type="logical" name="LSCALU"> F  </i>
   <i type="logical" name="LASYNC"> F  </i>
   <i type="logical" name="LORBITALREAL"> F  </i>
  </separator>
  <separator name="miscellaneous" >
   <i type="int" name="IDIOT">     3</i>
   <i type="int" name="PHON_NSTRUCT">    -1</i>
   <i type="logical" name="LMUSIC"> F  </i>
   <v name="POMASS">     10.81100000     14.00100000</v>
   <v name="DARWINR">      0.00000000      0.00000000</v>
   <v name="DARWINV">      1.00000000      1.00000000</v>
   <i type="logical" name="LCORR"> T  </i>
  </separator>
  <i type="logical" name="GGA_COMPAT"> T  </i>
  <i type="logical" name="LBERRY"> F  </i>
  <i type="int" name="ICORELEVEL">     0</i>
  <i type="logical" name="LDAU"> F  </i>
  <i type="int" name="I_CONSTRAINED_M">     0</i>
  <separator name="electronic exchange-correlation" >
   <i type="string" name="GGA">--</i>
   <i type="int" name="VOSKOWN">     0</i>
   <i type="logical" name="LHFCALC"> F  </i>
   <i type="string" name="PRECFOCK"></i>
   <i type="logical" name="LSYMGRAD"> F  </i>
   <i type="logical" name="LHFONE"> F  </i>
   <i type="logical" name="LRHFCALC"> F  </i>
   <i type="logical" name="LTHOMAS"> F  </i>
   <i type="logical" name="LMODELHF"> F  </i>
   <i type="logical" name="LFOCKACE"> F  </i>
   <i name="ENCUT4O">     -1.00000000</i>
   <i type="int" name="EXXOEP">     0</i>
   <i type="int" name="FOURORBIT">     0</i>
   <i name="AEXX">      0.00000000</i>
   <i name="HFALPHA">      0.00000000</i>
   <i name="MCALPHA">      0.00000000</i>
   <i name="ALDAX">      1.00000000</i>
   <i name="AGGAX">      1.00000000</i>
   <i name="ALDAC">      1.00000000</i>
   <i name="AGGAC">      1.00000000</i>
   <i type="int" name="NKREDX">     1</i>
   <i type="int" name="NKREDY">     1</i>
   <i type="int" name="NKREDZ">     1</i>
   <i type="logical" name="SHIFTRED"> F  </i>
   <i type="logical" name="ODDONLY"> F  </i>
   <i type="logical" name="EVENONLY"> F  </i>
   <i type="int" name="LMAXFOCK">     0</i>
   <i type="int" name="NMAXFOCKAE">     0</i>
   <i type="logical" name="LFOCKAEDFT"> F  </i>
   <i name="HFSCREEN">      0.00000000</i>
   <i name="HFSCREENC">      0.00000000</i>
   <i type="int" name="NBANDSGWLOW">     0</i>
  </separator>
  <separator name="vdW DFT" >
   <i type="logical" name="LUSE_VDW"> F  </i>
   <i name="Zab_VDW">     -0.84910000</i>
   <i name="PARAM1">      0.12340000</i>
   <i name="PARAM2">      1.00000000</i>
   <i name="PARAM3">      0.00000000</i>
  </separator>
  <separator name="model GW" >
   <i type="int" name="MODEL_GW">     0</i>
   <i name="MODEL_EPS0">      6.31988989</i>
   <i name="MODEL_ALPHA">      1.00000000</i>
  </separator>
  <separator name="linear response parameters" >
   <i type="logical" name="LEPSILON"> F  </i>
   <i type="logical" name="LRPA"> F  </i>
   <i type="logical" name="LNABLA"> F  </i>
   <i type="logical" name="LVEL"> F  </i>
   <i type="int" name="KINTER">     0</i>
   <i name="CSHIFT">      0.10000000</i>
   <i name="OMEGAMAX">     -1.00000000</i>
   <i name="DEG_THRESHOLD">      0.00200000</i>
   <i name="RTIME">     -0.10000000</i>
   <i name="WPLASMAI">      0.00000000</i>
   <v name="DFIELD">      0.00000000      0.00000000      0.00000000</v>
   <v name="WPLASMA">      0.00000000      0.00000000      0.00000000      0.00000000      0.00000000      0.00000000      0.00000000      0.00000000      0.00000000</v>
  </separator>
  <separator name="orbital magnetization" >
   <i type="logical" name="NUCIND"> F  </i>
   <v name="MAGPOS">      0.00000000      0.00000000      0.00000000</v>
   <i type="logical" name="LNICSALL"> T  </i>
   <i type="logical" name="ORBITALMAG"> F  </i>
   <i type="logical" name="LMAGBLOCH"> F  </i>
   <i type="logical" name="LCHIMAG"> F  </i>
   <i type="logical" name="LGAUGE"> T  </i>
   <i type="int" name="MAGATOM">     0</i>
   <v name="MAGDIPOL">      0.00000000      0.00000000      0.00000000</v>
   <v name="AVECCONST">      0.00000000      0.00000000      0.00000000</v>
  </separator>
  <separator name="response functions" >
   <i type="logical" name="LFINITE_TEMPERATURE"> F  </i>
   <i type="logical" name="LADDER"> F  </i>
   <i type="logical" name="LRPAFORCE"> F  </i>
   <i type="logical" name="LFXC"> F  </i>
   <i type="logical" name="LHARTREE"> T  </i>
   <i type="int" name="IBSE">     0</i>
   <v type="int" name="KPOINT">    -1     0     0     0</v>
   <i type="logical" name="LTCTC"> F  </i>
   <i type="logical" name="LTCTE"> F  </i>
   <i type="logical" name="LTETE"> F  </i>
   <i type="logical" name="LTRIPLET"> F  </i>
   <i type="logical" name="LFXCEPS"> F  </i>
   <i type="logical" name="LFXHEG"> F  </i>
   <i type="int" name="NATURALO">     2</i>
   <i type="logical" name="LHOLEGF"> F  </i>
   <i type="logical" name="L2ORDER"> F  </i>
   <i type="logical" name="LDMP1"> F  </i>
   <i type="logical" name="LMP2LT"> F  </i>
   <i type="logical" name="LSMP2LT"> F  </i>
   <i type="logical" name="LGWLF"> F  </i>
   <i name="ENCUTGW">     -2.00000000</i>
   <i name="ENCUTGWSOFT">     -2.00000000</i>
   <i name="ENCUTLF">     -1.00000000</i>
   <i type="logical" name="LESF_SPLINES"> F  </i>
   <i type="int" name="LMAXMP2">    -1</i>
   <i name="SCISSOR">      0.00000000</i>
   <i type="int" name="NOMEGA">     0</i>
   <i type="int" name="NOMEGAR">     0</i>
   <i type="int" name="NBANDSGW">    -1</i>
   <i type="int" name="NBANDSO">    -1</i>
   <i type="int" name="NBANDSV">    -1</i>
   <i type="int" name="NELM">     1</i>
   <i type="int" name="NELMHF">     1</i>
   <i type="int" name="DIM">     3</i>
   <i type="int" name="IESPILON">     4</i>
   <i type="int" name="ANTIRES">     0</i>
   <i name="OMEGAMAX">    -30.00000000</i>
   <i name="OMEGAMIN">    -30.00000000</i>
   <i name="OMEGATL">   -200.00000000</i>
   <i type="int" name="OMEGAGRID">     0</i>
   <i name="CSHIFT">     -0.10000000</i>
   <i type="logical" name="LSELFENERGY"> F  </i>
   <i type="logical" name="LSPECTRAL"> F  </i>
   <i type="logical" name="LSPECTRALGW"> F  </i>
   <i type="logical" name="LSINGLES"> F  </i>
   <i type="logical" name="LFERMIGW"> F  </i>
   <i type="logical" name="ODDONLYGW"> F  </i>
   <i type="logical" name="EVENONLYGW"> F  </i>
   <i type="int" name="NKREDLFX">     1</i>
   <i type="int" name="NKREDLFY">     1</i>
   <i type="int" name="NKREDLFZ">     1</i>
   <i type="int" name="MAXMEM">  2800</i>
   <i type="int" name="TELESCOPE">     0</i>
   <i type="int" name="NTAUPAR">    -1</i>
   <i type="int" name="NOMEGAPAR">    -1</i>
   <i name="DAMP_NEWTON">      0.80000001</i>
   <i name="LAMBDA">      1.00000000</i>
  </separator>
  <separator name="External order field" >
   <i name="OFIELD_KAPPA">      0.00000000</i>
   <v name="OFIELD_K">      0.00000000      0.00000000      0.00000000</v>
   <i name="OFIELD_Q6_NEAR">      0.00000000</i>
   <i name="OFIELD_Q6_FAR">      0.00000000</i>
   <i name="OFIELD_A">      0.00000000</i>
  </separator>
 </parameters>
 <atominfo>
  <atoms>       4 </atoms>
  <types>       2 </types>
  <array name="atoms" >
   <dimension dim="1">ion</dimension>
   <field type="string">element</field>
   <field type="int">atomtype</field>
   <set>
    <rc><c>B </c><c>   1</c></rc>
    <rc><c>B </c><c>   1</c></rc>
    <rc><c>N </c><c>   2</c></rc>
    <rc><c>N </c><c>   2</c></rc>
   </set>
  </array>
  <array name="atomtypes" >
   <dimension dim="1">type</dimension>
   <field type="int">atomspertype</field>
   <field type="string">element</field>
   <field>mass</field>
   <field>valence</field>
   <field type="string">pseudopotential</field>
   <set>
    <rc><c>   2</c><c>B </c><c>     10.81100000</c><c>      3.00000000</c><c>  PAW_PBE B 06Sep2000                   </c></rc>
    <rc><c>   2</c><c>N </c><c>     14.00100000</c><c>      5.00000000</c><c>  PAW_PBE N 08Apr2002                   </c></rc>
   </set>
  </array>
 </atominfo>
 <structure name="initialpos" >
  <crystal>
   <varray name="basis" >
    <v>       2.51242823       0.00000000       0.00000000 </v>
    <v>      -1.25621411       2.17582667       0.00000000 </v>
    <v>       0.00000000       0.00000000       7.70726500 </v>
   </varray>
   <i name="volume">     42.13259925 </i>
   <varray name="rec_basis" >
    <v>       0.39802132       0.22979772       0.00000000 </v>
    <v>       0.00000000       0.45959543       0.00000000 </v>
    <v>       0.00000000       0.00000000       0.12974771 </v>
   </varray>
  </crystal>
  <varray name="positions" >
   <v>       0.33333333       0.66666667       0.25000000 </v>
   <v>       0.66666667       0.33333333       0.75000000 </v>
   <v>       0.33333333       0.66666667       0.75000000 </v>
   <v>       0.66666667       0.33333333       0.25000000 </v>
  </varray>
 </structure>
 <calculation>
  <scstep>
   <time name="dav">    0.60    0.61</time>
   <time name="total">    0.61    0.62</time>
   <energy>
    <i name="alphaZ">     33.78354684 </i>
    <i name="ewald">   -405.89709548 </i>
    <i name="hartreedc">   -245.52857014 </i>
    <i name="XCdc">     53.94541839 </i>
    <i name="pawpsdc">    496.86519423 </i>
    <i name="pawaedc">   -497.53652252 </i>
    <i name="eentropy">     -0.00000000 </i>
    <i name="bandstr">      9.86387368 </i>
    <i name="atom">    671.41057895 </i>
    <i name="e_fr_energy">    116.90642395 </i>
    <i name="e_wo_entrp">    116.90642395 </i>
    <i name="e_0_energy">    116.90642395 </i>
   </energy>
  </scstep>
  <scstep>
   <time name="dav">    0.69    0.69</time>
   <time name="total">    0.69    0.69</time>
   <energy>
    <i name="e_fr_energy">    -33.31213634 </i>
    <i name="e_wo_entrp">    -33.31213634 </i>
    <i name="e_0_energy">    -33.31213634 </i>
   </energy>
  </scstep>
  <scstep>
   <time name="dav">    0.78    0.78</time>
   <time name="total">    0.78    0.78</time>
   <energy>
    <i name="e_fr_energy">    -38.83136058 </i>
    <i name="e_wo_entrp">    -38.83136058 </i>
    <i name="e_0_energy">    -38.83136058 </i>
   </energy>
  </scstep>
  <scstep>
   <time name="dav">    0.69    0.69</time>
   <time name="total">    0.69    0.69</time>
   <energy>
    <i name="e_fr_energy">    -38.83757545 </i>
    <i name="e_wo_entrp">    -38.83757545 </i>
    <i name="e_0_energy">    -38.83757545 </i>
   </energy>
  </scstep>
  <scstep>
   <time name="dav">    0.90    0.90</time>
   <time name="total">    0.92    0.92</time>
   <energy>
    <i name="e_fr_energy">    -38.83757709 </i>
    <i name="e_wo_entrp">    -38.83757709 </i>
    <i name="e_0_energy">    -38.83757709 </i>
   </energy>
  </scstep>
  <scstep>
   <time name="dav">    0.86    0.86</time>
   <time name="total">    0.91    0.91</time>
   <energy>
    <i name="e_fr_energy">    -35.59738606 </i>
    <i name="e_wo_entrp">    -35.59738606 </i>
    <i name="e_0_energy">    -35.59738606 </i>
   </energy>
  </scstep>
  <scstep>
   <time name="dav">    0.70    0.70</time>
   <time name="total">    0.72    0.72</time>
   <energy>
    <i name="e_fr_energy">    -35.25787973 </i>
    <i name="e_wo_entrp">    -35.25787973 </i>
    <i name="e_0_energy">    -35.25787973 </i>
   </energy>
  </scstep>
  <scstep>
   <time name="dav">    0.70    0.70</time>
   <time name="total">    0.73    0.73</time>
   <energy>
    <i name="e_fr_energy">    -35.15871656 </i>
    <i name="e_wo_entrp">    -35.15871656 </i>
    <i name="e_0_energy">    -35.15871656 </i>
   </energy>
  </scstep>
  <scstep>
   <time name="dav">    0.83    0.83</time>
   <time name="total">    0.86    0.86</time>
   <energy>
    <i name="e_fr_energy">    -35.16077146 </i>
    <i name="e_wo_entrp">    -35.16077146 </i>
    <i name="e_0_energy">    -35.16077146 </i>
   </energy>
  </scstep>
  <scstep>
   <time name="dav">    0.78    0.78</time>
   <time name="total">    0.80    0.80</time>
   <energy>
    <i name="e_fr_energy">    -35.16165118 </i>
    <i name="e_wo_entrp">    -35.16165118 </i>
    <i name="e_0_energy">    -35.16165118 </i>
   </energy>
  </scstep>
  <scstep>
   <time name="dav">    0.69    0.69</time>
   <time name="total">    0.72    0.72</time>
   <energy>
    <i name="e_fr_energy">    -35.16175717 </i>
    <i name="e_wo_entrp">    -35.16175717 </i>
    <i name="e_0_energy">    -35.16175717 </i>
   </energy>
  </scstep>
  <scstep>
   <time name="dav">    0.65    0.65</time>
   <time name="total">    0.67    0.67</time>
   <energy>
    <i name="e_fr_energy">    -35.16176894 </i>
    <i name="e_wo_entrp">    -35.16176894 </i>
    <i name="e_0_energy">    -35.16176894 </i>
   </energy>
  </scstep>
  <scstep>
   <time name="dav">    0.74    0.74</time>
   <time name="total">    0.76    0.76</time>
   <energy>
    <i name="alphaZ">     33.78354684 </i>
    <i name="ewald">   -405.89709548 </i>
    <i name="hartreedc">   -294.12900136 </i>
    <i name="XCdc">     56.67627042 </i>
    <i name="pawpsdc">   1850.84206541 </i>
    <i name="pawaedc">  -1852.30564001 </i>
    <i name="eentropy">     -0.00000000 </i>
    <i name="bandstr">    -95.54249431 </i>
    <i name="atom">    671.41057895 </i>
    <i name="e_fr_energy">    -35.16176953 </i>
    <i name="e_wo_entrp">    -35.16176953 </i>
    <i name="e_0_energy">    -35.16176953 </i>
   </energy>
  </scstep>
  <structure>
   <crystal>
    <varray name="basis" >
     <v>       2.51242823       0.00000000       0.00000000 </v>
     <v>      -1.25621411       2.17582667       0.00000000 </v>
     <v>       0.00000000       0.00000000       7.70726500 </v>
    </varray>
    <i name="volume">     42.13259925 </i>
    <varray name="rec_basis" >
     <v>       0.39802132       0.22979772       0.00000000 </v>
     <v>       0.00000000       0.45959543       0.00000000 </v>
     <v>       0.00000000       0.00000000       0.12974771 </v>
    </varray>
   </crystal>
   <varray name="positions" >
    <v>       0.33333333       0.66666667       0.25000000 </v>
    <v>       0.66666667       0.33333333       0.75000000 </v>
    <v>       0.33333333       0.66666667       0.75000000 </v>
    <v>       0.66666667       0.33333333       0.25000000 </v>
   </varray>
  </structure>
  <varray name="forces" >
   <v>       0.00000000      -0.00000000       0.00000000 </v>
   <v>       0.00000000       0.00000000       0.00000000 </v>
   <v>      -0.00000000      -0.00000000      -0.00000000 </v>
   <v>      -0.00000000      -0.00000000       0.00000000 </v>
  </varray>
  <varray name="stress" >
   <v>       0.01336516       0.00000000       0.00000000 </v>
   <v>       0.00000000       0.01336516      -0.00000000 </v>
   <v>       0.00000000       0.00000000       2.57519874 </v>
  </varray>
  <energy>
   <i name="e_fr_energy">    -35.16174324 </i>
   <i name="e_wo_entrp">    -35.16174324 </i>
   <i name="e_0_energy">    -35.16174324 </i>
  </energy>
  <time name="totalsc">   10.05   10.07</time>
  <eigenvalues>
   <array>
    <dimension dim="1">band</dimension>
    <dimension dim="2">kpoint</dimension>
    <dimension dim="3">spin</dimension>
    <field>eigene</field>
    <field>occ</field>
    <set>
     <set comment="spin 1">
      <set comment="kpoint 1">
       <r>  -16.5161    1.0000 </r>
       <r>  -16.4304    1.0000 </r>
       <r>   -4.5331    1.0000 </r>
       <r>   -3.5625    1.0000 </r>
       <r>   -0.2101    1.0000 </r>
       <r>   -0.2101    1.0000 </r>
       <r>   -0.2028    1.0000 </r>
       <r>   -0.2028    1.0000 </r>
       <r>    5.7245    0.0000 </r>
       <r>    9.7039    0.0000 </r>
       <r>   12.0642    0.0000 </r>
       <r>   12.6382    0.0000 </r>
       <r>   12.6382    0.0000 </r>
       <r>   12.6712    0.0000 </r>
       <r>   12.6712    0.0000 </r>
       <r>   13.7425    0.0000 </r>
       <r>   15.0567    0.0000 </r>
       <r>   15.8497    0.0000 </r>
       <r>   18.8924    0.0000 </r>
       <r>   24.6707    0.0000 </r>
       <r>   26.2564    0.0000 </r>
       <r>   26.7185    0.0000 </r>
       <r>   29.8886    0.0000 </r>
       <r>   29.8886    0.0000 </r>
       <r>   31.9275    0.0000 </r>
       <r>   31.9275    0.0000 </r>
       <r>   32.3576    0.0000 </r>
       <r>   32.6666    0.0000 </r>
       <r>   32.6666    0.0000 </r>
       <r>   33.8568    0.0000 </r>
       <r>   35.8589    0.0000 </r>
       <r>   35.8589    0.0000 </r>
       <r>   35.9892    0.0000 </r>
       <r>   35.9892    0.0000 </r>
       <r>   36.8868    0.0000 </r>
       <r>   36.8868    0.0000 </r>
       <r>   38.2823    0.0000 </r>
       <r>   38.5112    0.0000 </r>
       <r>   39.2311    0.0000 </r>
       <r>   40.4604    0.0000 </r>
       <r>   41.8715    0.0000 </r>
       <r>   43.5266    0.0000 </r>
       <r>   43.5266    0.0000 </r>
       <r>   43.7133    0.0000 </r>
       <r>   43.7133    0.0000 </r>
       <r>   45.9754    0.0000 </r>
       <r>   45.9754    0.0000 </r>
       <r>   48.8840    0.0000 </r>
       <r>   48.8840    0.0000 </r>
       <r>   48.9837    0.0000 </r>
       <r>   51.2320    0.0000 </r>
       <r>   51.2320    0.0000 </r>
       <r>   51.4468    0.0000 </r>
       <r>   51.7047    0.0000 </r>
       <r>   55.1012    0.0000 </r>
       <r>   55.1012    0.0000 </r>
       <r>   55.1127    0.0000 </r>
       <r>   55.5589    0.0000 </r>
       <r>   58.8265    0.0000 </r>
       <r>   61.1641    0.0000 </r>
       <r>   61.1641    0.0000 </r>
       <r>   62.4271    0.0000 </r>
       <r>   62.4271    0.0000 </r>
       <r>   65.0720    0.0000 </r>
       <r>   65.7098    0.0000 </r>
       <r>   65.7098    0.0000 </r>
       <r>   67.9089    0.0000 </r>
       <r>   67.9089    0.0000 </r>
       <r>   68.3516    0.0000 </r>
       <r>   71.5454    0.0000 </r>
       <r>   74.0796    0.0000 </r>
       <r>   74.0796    0.0000 </r>
       <r>   74.4614    0.0000 </r>
       <r>   74.4614    0.0000 </r>
       <r>   78.1639    0.0000 </r>
       <r>   78.7471    0.0000 </r>
       <r>   80.0167    0.0000 </r>
       <r>   80.2767    0.0000 </r>
       <r>   80.3785    0.0000 </r>
       <r>   80.9488    0.0000 </r>
       <r>   80.9488    0.0000 </r>
       <r>   84.3302    0.0000 </r>
       <r>   84.7529    0.0000 </r>
       <r>   84.7744    0.0000 </r>
       <r>   84.7744    0.0000 </r>
       <r>   87.4376    0.0000 </r>
       <r>   87.4376    0.0000 </r>
       <r>   88.5472    0.0000 </r>
       <r>   88.5472    0.0000 </r>
       <r>   90.9741    0.0000 </r>
       <r>   91.3144    0.0000 </r>
       <r>   91.6088    0.0000 </r>
       <r>   91.6088    0.0000 </r>
       <r>   93.7378    0.0000 </r>
       <r>   93.9628    0.0000 </r>
       <r>   93.9628    0.0000 </r>
       <r>   94.4101    0.0000 </r>
       <r>   94.8018    0.0000 </r>
       <r>   94.8018    0.0000 </r>
       <r>   95.0550    0.0000 </r>
       <r>   95.0550    0.0000 </r>
       <r>   95.2966    0.0000 </r>
       <r>   95.2966    0.0000 </r>
       <r>   95.7254    0.0000 </r>
       <r>   96.8871    0.0000 </r>
       <r>   97.5945    0.0000 </r>
       <r>   97.5945    0.0000 </r>
       <r>   98.7935    0.0000 </r>
       <r>   98.7935    0.0000 </r>
       <r>   98.8167    0.0000 </r>
       <r>  101.3283    0.0000 </r>
       <r>  101.3283    0.0000 </r>
       <r>  101.6711    0.0000 </r>
       <r>  104.0675    0.0000 </r>
       <r>  104.0675    0.0000 </r>
       <r>  104.1119    0.0000 </r>
       <r>  105.0523    0.0000 </r>
       <r>  106.6452    0.0000 </r>
       <r>  108.5804    0.0000 </r>
       <r>  108.5804    0.0000 </r>
       <r>  108.8673    0.0000 </r>
       <r>  108.8673    0.0000 </r>
       <r>  110.4378    0.0000 </r>
       <r>  110.9393    0.0000 </r>
       <r>  110.9573    0.0000 </r>
       <r>  111.4352    0.0000 </r>
       <r>  111.5246    0.0000 </r>
       <r>  111.7307    0.0000 </r>
      </set>
      <set comment="kpoint 2">
       <r>  -15.3642    1.0000 </r>
       <r>  -15.2927    1.0000 </r>
       <r>   -3.9504    1.0000 </r>
       <r>   -3.9409    1.0000 </r>
       <r>   -2.9396    1.0000 </r>
       <r>   -2.0748    1.0000 </r>
       <r>   -1.8131    1.0000 </r>
       <r>   -1.8008    1.0000 </r>
       <r>    7.6118    0.0000 </r>
       <r>    9.3550    0.0000 </r>
       <r>   10.3533    0.0000 </r>
       <r>   11.5372    0.0000 </r>
       <r>   12.2014    0.0000 </r>
       <r>   14.0291    0.0000 </r>
       <r>   15.1132    0.0000 </r>
       <r>   17.0643    0.0000 </r>
       <r>   17.1042    0.0000 </r>
       <r>   18.0477    0.0000 </r>
       <r>   20.3320    0.0000 </r>
       <r>   21.2202    0.0000 </r>
       <r>   23.2840    0.0000 </r>
       <r>   24.9902    0.0000 </r>
       <r>   25.2349    0.0000 </r>
       <r>   27.7053    0.0000 </r>
       <r>   28.9829    0.0000 </r>
       <r>   29.2605    0.0000 </r>
       <r>   29.8557    0.0000 </r>
       <r>   30.4978    0.0000 </r>
       <r>   30.7872    0.0000 </r>
       <r>   32.8637    0.0000 </r>
       <r>   35.6554    0.0000 </r>
       <r>   35.9279    0.0000 </r>
       <r>   36.1458    0.0000 </r>
       <r>   37.5625    0.0000 </r>
       <r>   38.2485    0.0000 </r>
       <r>   40.0346    0.0000 </r>
       <r>   40.1852    0.0000 </r>
       <r>   42.4612    0.0000 </r>
       <r>   43.4641    0.0000 </r>
       <r>   43.9941    0.0000 </r>
       <r>   43.9959    0.0000 </r>
       <r>   45.0204    0.0000 </r>
       <r>   45.5778    0.0000 </r>
       <r>   46.2344    0.0000 </r>
       <r>   46.9398    0.0000 </r>
       <r>   48.2948    0.0000 </r>
       <r>   48.9923    0.0000 </r>
       <r>   49.1261    0.0000 </r>
       <r>   49.1317    0.0000 </r>
       <r>   51.2360    0.0000 </r>
       <r>   52.1197    0.0000 </r>
       <r>   54.5291    0.0000 </r>
       <r>   55.9956    0.0000 </r>
       <r>   56.0023    0.0000 </r>
       <r>   56.3831    0.0000 </r>
       <r>   56.8580    0.0000 </r>
       <r>   57.0561    0.0000 </r>
       <r>   57.3234    0.0000 </r>
       <r>   58.0622    0.0000 </r>
       <r>   58.1505    0.0000 </r>
       <r>   60.6519    0.0000 </r>
       <r>   64.1146    0.0000 </r>
       <r>   64.9347    0.0000 </r>
       <r>   66.0507    0.0000 </r>
       <r>   66.1612    0.0000 </r>
       <r>   66.8737    0.0000 </r>
       <r>   67.4672    0.0000 </r>
       <r>   69.0046    0.0000 </r>
       <r>   69.5492    0.0000 </r>
       <r>   72.5016    0.0000 </r>
       <r>   72.8638    0.0000 </r>
       <r>   72.9947    0.0000 </r>
       <r>   73.8551    0.0000 </r>
       <r>   74.6475    0.0000 </r>
       <r>   74.9220    0.0000 </r>
       <r>   76.0111    0.0000 </r>
       <r>   76.2302    0.0000 </r>
       <r>   76.8672    0.0000 </r>
       <r>   77.2876    0.0000 </r>
       <r>   77.5062    0.0000 </r>
       <r>   78.9801    0.0000 </r>
       <r>   79.4115    0.0000 </r>
       <r>   79.7521    0.0000 </r>
       <r>   80.4109    0.0000 </r>
       <r>   80.4373    0.0000 </r>
       <r>   82.4357    0.0000 </r>
       <r>   84.3124    0.0000 </r>
       <r>   84.3627    0.0000 </r>
       <r>   84.7373    0.0000 </r>
       <r>   85.1566    0.0000 </r>
       <r>   85.3723    0.0000 </r>
       <r>   86.1939    0.0000 </r>
       <r>   87.3682    0.0000 </r>
       <r>   89.0312    0.0000 </r>
       <r>   90.2361    0.0000 </r>
       <r>   90.4620    0.0000 </r>
       <r>   91.4539    0.0000 </r>
       <r>   92.0765    0.0000 </r>
       <r>   93.8700    0.0000 </r>
       <r>   95.0250    0.0000 </r>
       <r>   95.2091    0.0000 </r>
       <r>   95.9730    0.0000 </r>
       <r>   96.3099    0.0000 </r>
       <r>   96.7814    0.0000 </r>
       <r>   96.8064    0.0000 </r>
       <r>   97.5233    0.0000 </r>
       <r>   98.1295    0.0000 </r>
       <r>   98.5617    0.0000 </r>
       <r>   98.5720    0.0000 </r>
       <r>   98.8051    0.0000 </r>
       <r>  100.3075    0.0000 </r>
       <r>  100.8226    0.0000 </r>
       <r>  101.1302    0.0000 </r>
       <r>  102.7328    0.0000 </r>
       <r>  102.8623    0.0000 </r>
       <r>  103.5959    0.0000 </r>
       <r>  103.6601    0.0000 </r>
       <r>  104.0127    0.0000 </r>
       <r>  105.4711    0.0000 </r>
       <r>  105.5647    0.0000 </r>
       <r>  105.6333    0.0000 </r>
       <r>  107.5663    0.0000 </r>
       <r>  108.1753    0.0000 </r>
       <r>  108.4469    0.0000 </r>
       <r>  109.3411    0.0000 </r>
       <r>  109.9295    0.0000 </r>
       <r>  110.6453    0.0000 </r>
       <r>  110.7208    0.0000 </r>
      </set>
      <set comment="kpoint 3">
       <r>  -13.4250    1.0000 </r>
       <r>  -13.4061    1.0000 </r>
       <r>   -7.7195    1.0000 </r>
       <r>   -7.7001    1.0000 </r>
       <r>   -2.9826    1.0000 </r>
       <r>   -2.9681    1.0000 </r>
       <r>    0.0176    1.0000 </r>
       <r>    0.4301    1.0000 </r>
       <r>    5.6016    0.0000 </r>
       <r>    6.2717    0.0000 </r>
       <r>   10.5312    0.0000 </r>
       <r>   11.0146    0.0000 </r>
       <r>   13.3487    0.0000 </r>
       <r>   14.1209    0.0000 </r>
       <r>   15.6297    0.0000 </r>
       <r>   17.3605    0.0000 </r>
       <r>   19.7173    0.0000 </r>
       <r>   20.3458    0.0000 </r>
       <r>   21.1594    0.0000 </r>
       <r>   22.6771    0.0000 </r>
       <r>   22.8154    0.0000 </r>
       <r>   23.2992    0.0000 </r>
       <r>   25.8060    0.0000 </r>
       <r>   26.1246    0.0000 </r>
       <r>   26.6365    0.0000 </r>
       <r>   27.0110    0.0000 </r>
       <r>   28.9339    0.0000 </r>
       <r>   29.1554    0.0000 </r>
       <r>   30.4225    0.0000 </r>
       <r>   31.6376    0.0000 </r>
       <r>   31.9702    0.0000 </r>
       <r>   35.3243    0.0000 </r>
       <r>   35.4780    0.0000 </r>
       <r>   38.3229    0.0000 </r>
       <r>   38.6560    0.0000 </r>
       <r>   39.1969    0.0000 </r>
       <r>   40.1305    0.0000 </r>
       <r>   40.9705    0.0000 </r>
       <r>   42.0499    0.0000 </r>
       <r>   43.7583    0.0000 </r>
       <r>   45.0623    0.0000 </r>
       <r>   49.0717    0.0000 </r>
       <r>   51.4129    0.0000 </r>
       <r>   51.7420    0.0000 </r>
       <r>   51.9227    0.0000 </r>
       <r>   53.3912    0.0000 </r>
       <r>   53.8200    0.0000 </r>
       <r>   54.4579    0.0000 </r>
       <r>   54.6725    0.0000 </r>
       <r>   55.2145    0.0000 </r>
       <r>   55.7285    0.0000 </r>
       <r>   57.2471    0.0000 </r>
       <r>   57.6159    0.0000 </r>
       <r>   58.0851    0.0000 </r>
       <r>   58.1261    0.0000 </r>
       <r>   58.6992    0.0000 </r>
       <r>   59.0120    0.0000 </r>
       <r>   59.4909    0.0000 </r>
       <r>   60.0085    0.0000 </r>
       <r>   60.9472    0.0000 </r>
       <r>   61.6638    0.0000 </r>
       <r>   62.0569    0.0000 </r>
       <r>   63.1780    0.0000 </r>
       <r>   64.2744    0.0000 </r>
       <r>   64.5188    0.0000 </r>
       <r>   66.4516    0.0000 </r>
       <r>   66.6568    0.0000 </r>
       <r>   67.5703    0.0000 </r>
       <r>   69.0565    0.0000 </r>
       <r>   70.6590    0.0000 </r>
       <r>   70.7074    0.0000 </r>
       <r>   71.4239    0.0000 </r>
       <r>   71.4369    0.0000 </r>
       <r>   72.2221    0.0000 </r>
       <r>   72.2240    0.0000 </r>
       <r>   72.2890    0.0000 </r>
       <r>   72.9369    0.0000 </r>
       <r>   74.2900    0.0000 </r>
       <r>   74.4217    0.0000 </r>
       <r>   74.7155    0.0000 </r>
       <r>   75.5955    0.0000 </r>
       <r>   77.2820    0.0000 </r>
       <r>   78.1522    0.0000 </r>
       <r>   78.9435    0.0000 </r>
       <r>   79.7821    0.0000 </r>
       <r>   80.4355    0.0000 </r>
       <r>   81.3816    0.0000 </r>
       <r>   81.6200    0.0000 </r>
       <r>   83.4241    0.0000 </r>
       <r>   84.0204    0.0000 </r>
       <r>   84.4583    0.0000 </r>
       <r>   85.8457    0.0000 </r>
       <r>   86.3970    0.0000 </r>
       <r>   86.4884    0.0000 </r>
       <r>   87.0317    0.0000 </r>
       <r>   87.3925    0.0000 </r>
       <r>   87.8053    0.0000 </r>
       <r>   88.3268    0.0000 </r>
       <r>   88.4083    0.0000 </r>
       <r>   88.5220    0.0000 </r>
       <r>   88.9478    0.0000 </r>
       <r>   89.7188    0.0000 </r>
       <r>   90.1092    0.0000 </r>
       <r>   90.5555    0.0000 </r>
       <r>   94.7719    0.0000 </r>
       <r>   96.4379    0.0000 </r>
       <r>   97.5597    0.0000 </r>
       <r>   99.8408    0.0000 </r>
       <r>  100.8349    0.0000 </r>
       <r>  100.9039    0.0000 </r>
       <r>  101.0794    0.0000 </r>
       <r>  102.4084    0.0000 </r>
       <r>  103.4890    0.0000 </r>
       <r>  103.8649    0.0000 </r>
       <r>  103.9308    0.0000 </r>
       <r>  103.9539    0.0000 </r>
       <r>  103.9807    0.0000 </r>
       <r>  104.5361    0.0000 </r>
       <r>  105.0166    0.0000 </r>
       <r>  105.2144    0.0000 </r>
       <r>  105.2269    0.0000 </r>
       <r>  106.5777    0.0000 </r>
       <r>  107.0164    0.0000 </r>
       <r>  107.6880    0.0000 </r>
       <r>  107.7784    0.0000 </r>
       <r>  107.9388    0.0000 </r>
       <r>  108.1316    0.0000 </r>
       <r>  108.3235    0.0000 </r>
      </set>
      <set comment="kpoint 4">
       <r>  -13.5538    1.0000 </r>
       <r>  -13.5153    1.0000 </r>
       <r>   -6.4359    1.0000 </r>
       <r>   -6.4209    1.0000 </r>
       <r>   -4.7222    1.0000 </r>
       <r>   -4.7070    1.0000 </r>
       <r>   -0.2584    1.0000 </r>
       <r>    0.2951    1.0000 </r>
       <r>    6.8070    0.0000 </r>
       <r>    6.8974    0.0000 </r>
       <r>   11.1793    0.0000 </r>
       <r>   13.4326    0.0000 </r>
       <r>   14.6778    0.0000 </r>
       <r>   14.7791    0.0000 </r>
       <r>   15.6675    0.0000 </r>
       <r>   16.9587    0.0000 </r>
       <r>   17.3252    0.0000 </r>
       <r>   18.1683    0.0000 </r>
       <r>   19.8964    0.0000 </r>
       <r>   20.4059    0.0000 </r>
       <r>   20.8905    0.0000 </r>
       <r>   22.3684    0.0000 </r>
       <r>   23.7113    0.0000 </r>
       <r>   26.7079    0.0000 </r>
       <r>   28.4955    0.0000 </r>
       <r>   28.6970    0.0000 </r>
       <r>   29.9128    0.0000 </r>
       <r>   30.4208    0.0000 </r>
       <r>   30.5117    0.0000 </r>
       <r>   31.7642    0.0000 </r>
       <r>   32.4187    0.0000 </r>
       <r>   35.8736    0.0000 </r>
       <r>   36.6910    0.0000 </r>
       <r>   40.0899    0.0000 </r>
       <r>   40.1915    0.0000 </r>
       <r>   41.1336    0.0000 </r>
       <r>   41.7354    0.0000 </r>
       <r>   42.8560    0.0000 </r>
       <r>   45.1328    0.0000 </r>
       <r>   45.2294    0.0000 </r>
       <r>   46.1498    0.0000 </r>
       <r>   46.1821    0.0000 </r>
       <r>   46.9346    0.0000 </r>
       <r>   47.1943    0.0000 </r>
       <r>   47.8698    0.0000 </r>
       <r>   50.1959    0.0000 </r>
       <r>   50.4234    0.0000 </r>
       <r>   52.9863    0.0000 </r>
       <r>   53.0690    0.0000 </r>
       <r>   53.4655    0.0000 </r>
       <r>   54.5205    0.0000 </r>
       <r>   55.7105    0.0000 </r>
       <r>   57.5351    0.0000 </r>
       <r>   58.2372    0.0000 </r>
       <r>   58.3546    0.0000 </r>
       <r>   58.8014    0.0000 </r>
       <r>   60.3862    0.0000 </r>
       <r>   61.6201    0.0000 </r>
       <r>   62.0577    0.0000 </r>
       <r>   62.8181    0.0000 </r>
       <r>   63.9717    0.0000 </r>
       <r>   64.5574    0.0000 </r>
       <r>   64.5987    0.0000 </r>
       <r>   65.2239    0.0000 </r>
       <r>   66.0352    0.0000 </r>
       <r>   66.7566    0.0000 </r>
       <r>   66.8356    0.0000 </r>
       <r>   67.4191    0.0000 </r>
       <r>   67.4898    0.0000 </r>
       <r>   68.1440    0.0000 </r>
       <r>   68.7566    0.0000 </r>
       <r>   69.1362    0.0000 </r>
       <r>   71.4620    0.0000 </r>
       <r>   71.7541    0.0000 </r>
       <r>   72.8019    0.0000 </r>
       <r>   74.1987    0.0000 </r>
       <r>   75.0378    0.0000 </r>
       <r>   75.0495    0.0000 </r>
       <r>   75.7284    0.0000 </r>
       <r>   75.9718    0.0000 </r>
       <r>   78.1868    0.0000 </r>
       <r>   78.3030    0.0000 </r>
       <r>   78.3793    0.0000 </r>
       <r>   79.2409    0.0000 </r>
       <r>   81.9295    0.0000 </r>
       <r>   82.1291    0.0000 </r>
       <r>   82.3607    0.0000 </r>
       <r>   82.4407    0.0000 </r>
       <r>   83.7474    0.0000 </r>
       <r>   84.0288    0.0000 </r>
       <r>   84.7519    0.0000 </r>
       <r>   85.4167    0.0000 </r>
       <r>   85.4186    0.0000 </r>
       <r>   88.1647    0.0000 </r>
       <r>   88.5196    0.0000 </r>
       <r>   88.7566    0.0000 </r>
       <r>   88.9178    0.0000 </r>
       <r>   88.9744    0.0000 </r>
       <r>   89.1569    0.0000 </r>
       <r>   89.5619    0.0000 </r>
       <r>   90.7291    0.0000 </r>
       <r>   92.0588    0.0000 </r>
       <r>   92.8620    0.0000 </r>
       <r>   93.2097    0.0000 </r>
       <r>   93.2111    0.0000 </r>
       <r>   93.5604    0.0000 </r>
       <r>   93.8759    0.0000 </r>
       <r>   94.7665    0.0000 </r>
       <r>   95.6872    0.0000 </r>
       <r>   96.1632    0.0000 </r>
       <r>   96.3033    0.0000 </r>
       <r>   97.1711    0.0000 </r>
       <r>   98.1308    0.0000 </r>
       <r>   98.3104    0.0000 </r>
       <r>   98.5330    0.0000 </r>
       <r>   99.6014    0.0000 </r>
       <r>  100.3816    0.0000 </r>
       <r>  100.9497    0.0000 </r>
       <r>  102.0292    0.0000 </r>
       <r>  102.9367    0.0000 </r>
       <r>  104.4650    0.0000 </r>
       <r>  105.1520    0.0000 </r>
       <r>  106.4549    0.0000 </r>
       <r>  106.6788    0.0000 </r>
       <r>  107.9330    0.0000 </r>
       <r>  108.2477    0.0000 </r>
       <r>  110.8228    0.0000 </r>
       <r>  111.8617    0.0000 </r>
      </set>
      <set comment="kpoint 5">
       <r>  -16.4737    1.0000 </r>
       <r>  -16.4737    1.0000 </r>
       <r>   -4.0845    1.0000 </r>
       <r>   -4.0845    1.0000 </r>
       <r>   -0.2063    1.0000 </r>
       <r>   -0.2063    1.0000 </r>
       <r>   -0.2063    1.0000 </r>
       <r>   -0.2063    1.0000 </r>
       <r>    7.3327    0.0000 </r>
       <r>    7.3327    0.0000 </r>
       <r>   12.6548    0.0000 </r>
       <r>   12.6548    0.0000 </r>
       <r>   12.6548    0.0000 </r>
       <r>   12.6548    0.0000 </r>
       <r>   13.2445    0.0000 </r>
       <r>   13.2445    0.0000 </r>
       <r>   15.3655    0.0000 </r>
       <r>   15.3655    0.0000 </r>
       <r>   21.5693    0.0000 </r>
       <r>   21.5693    0.0000 </r>
       <r>   26.5635    0.0000 </r>
       <r>   26.5635    0.0000 </r>
       <r>   30.6573    0.0000 </r>
       <r>   30.6573    0.0000 </r>
       <r>   30.6573    0.0000 </r>
       <r>   30.6573    0.0000 </r>
       <r>   33.3159    0.0000 </r>
       <r>   33.3159    0.0000 </r>
       <r>   33.6095    0.0000 </r>
       <r>   33.6095    0.0000 </r>
       <r>   33.6095    0.0000 </r>
       <r>   33.6095    0.0000 </r>
       <r>   38.6328    0.0000 </r>
       <r>   38.6328    0.0000 </r>
       <r>   38.7194    0.0000 </r>
       <r>   38.7194    0.0000 </r>
       <r>   38.7194    0.0000 </r>
       <r>   38.7194    0.0000 </r>
       <r>   39.4955    0.0000 </r>
       <r>   39.4955    0.0000 </r>
       <r>   40.7508    0.0000 </r>
       <r>   40.7508    0.0000 </r>
       <r>   40.7508    0.0000 </r>
       <r>   40.7508    0.0000 </r>
       <r>   45.7664    0.0000 </r>
       <r>   45.7664    0.0000 </r>
       <r>   49.7052    0.0000 </r>
       <r>   49.7052    0.0000 </r>
       <r>   49.7052    0.0000 </r>
       <r>   49.7052    0.0000 </r>
       <r>   50.2498    0.0000 </r>
       <r>   50.2498    0.0000 </r>
       <r>   53.0430    0.0000 </r>
       <r>   53.0430    0.0000 </r>
       <r>   53.0430    0.0000 </r>
       <r>   53.0430    0.0000 </r>
       <r>   55.0746    0.0000 </r>
       <r>   55.0746    0.0000 </r>
       <r>   59.0288    0.0000 </r>
       <r>   59.0288    0.0000 </r>
       <r>   59.0288    0.0000 </r>
       <r>   59.0288    0.0000 </r>
       <r>   65.9219    0.0000 </r>
       <r>   65.9219    0.0000 </r>
       <r>   68.3071    0.0000 </r>
       <r>   68.3071    0.0000 </r>
       <r>   71.2686    0.0000 </r>
       <r>   71.2686    0.0000 </r>
       <r>   71.2686    0.0000 </r>
       <r>   71.2686    0.0000 </r>
       <r>   74.0357    0.0000 </r>
       <r>   74.0357    0.0000 </r>
       <r>   74.7100    0.0000 </r>
       <r>   74.7100    0.0000 </r>
       <r>   74.7100    0.0000 </r>
       <r>   74.7100    0.0000 </r>
       <r>   76.9118    0.0000 </r>
       <r>   76.9118    0.0000 </r>
       <r>   76.9118    0.0000 </r>
       <r>   76.9118    0.0000 </r>
       <r>   80.3277    0.0000 </r>
       <r>   80.3277    0.0000 </r>
       <r>   86.1930    0.0000 </r>
       <r>   86.1930    0.0000 </r>
       <r>   88.6598    0.0000 </r>
       <r>   88.6598    0.0000 </r>
       <r>   90.5426    0.0000 </r>
       <r>   90.5426    0.0000 </r>
       <r>   90.5426    0.0000 </r>
       <r>   90.5426    0.0000 </r>
       <r>   91.0760    0.0000 </r>
       <r>   91.0760    0.0000 </r>
       <r>   93.4746    0.0000 </r>
       <r>   93.4746    0.0000 </r>
       <r>   93.4746    0.0000 </r>
       <r>   93.4746    0.0000 </r>
       <r>   95.8769    0.0000 </r>
       <r>   95.8769    0.0000 </r>
       <r>   95.8769    0.0000 </r>
       <r>   95.8769    0.0000 </r>
       <r>   96.7763    0.0000 </r>
       <r>   96.7763    0.0000 </r>
       <r>   98.1641    0.0000 </r>
       <r>   98.1641    0.0000 </r>
       <r>   99.8969    0.0000 </r>
       <r>   99.8969    0.0000 </r>
       <r>   99.8969    0.0000 </r>
       <r>   99.8969    0.0000 </r>
       <r>  100.9688    0.0000 </r>
       <r>  100.9688    0.0000 </r>
       <r>  100.9688    0.0000 </r>
       <r>  100.9688    0.0000 </r>
       <r>  101.3086    0.0000 </r>
       <r>  101.3086    0.0000 </r>
       <r>  101.9287    0.0000 </r>
       <r>  101.9287    0.0000 </r>
       <r>  101.9287    0.0000 </r>
       <r>  101.9287    0.0000 </r>
       <r>  104.9279    0.0000 </r>
       <r>  104.9279    0.0000 </r>
       <r>  104.9279    0.0000 </r>
       <r>  104.9279    0.0000 </r>
       <r>  105.4766    0.0000 </r>
       <r>  105.4766    0.0000 </r>
       <r>  107.3513    0.0000 </r>
       <r>  107.3518    0.0000 </r>
       <r>  108.8450    0.0000 </r>
       <r>  108.8450    0.0000 </r>
      </set>
      <set comment="kpoint 6">
       <r>  -15.3288    1.0000 </r>
       <r>  -15.3288    1.0000 </r>
       <r>   -3.9487    1.0000 </r>
       <r>   -3.9487    1.0000 </r>
       <r>   -2.5311    1.0000 </r>
       <r>   -2.5311    1.0000 </r>
       <r>   -1.8070    1.0000 </r>
       <r>   -1.8070    1.0000 </r>
       <r>    8.6259    0.0000 </r>
       <r>    8.6259    0.0000 </r>
       <r>   10.9195    0.0000 </r>
       <r>   10.9195    0.0000 </r>
       <r>   12.3285    0.0000 </r>
       <r>   12.3285    0.0000 </r>
       <r>   17.0837    0.0000 </r>
       <r>   17.0837    0.0000 </r>
       <r>   17.3234    0.0000 </r>
       <r>   17.3234    0.0000 </r>
       <r>   20.7883    0.0000 </r>
       <r>   20.7883    0.0000 </r>
       <r>   24.5652    0.0000 </r>
       <r>   24.5652    0.0000 </r>
       <r>   26.1074    0.0000 </r>
       <r>   26.1074    0.0000 </r>
       <r>   28.2938    0.0000 </r>
       <r>   28.2938    0.0000 </r>
       <r>   29.7521    0.0000 </r>
       <r>   29.7521    0.0000 </r>
       <r>   33.7806    0.0000 </r>
       <r>   33.7806    0.0000 </r>
       <r>   33.9329    0.0000 </r>
       <r>   33.9329    0.0000 </r>
       <r>   37.0214    0.0000 </r>
       <r>   37.0214    0.0000 </r>
       <r>   40.8531    0.0000 </r>
       <r>   40.8531    0.0000 </r>
       <r>   42.1179    0.0000 </r>
       <r>   42.1179    0.0000 </r>
       <r>   42.3992    0.0000 </r>
       <r>   42.3992    0.0000 </r>
       <r>   44.0563    0.0000 </r>
       <r>   44.0563    0.0000 </r>
       <r>   46.4930    0.0000 </r>
       <r>   46.4930    0.0000 </r>
       <r>   48.6378    0.0000 </r>
       <r>   48.6378    0.0000 </r>
       <r>   48.8866    0.0000 </r>
       <r>   48.8866    0.0000 </r>
       <r>   50.3547    0.0000 </r>
       <r>   50.3547    0.0000 </r>
       <r>   51.3400    0.0000 </r>
       <r>   51.3400    0.0000 </r>
       <r>   51.9643    0.0000 </r>
       <r>   51.9643    0.0000 </r>
       <r>   56.9295    0.0000 </r>
       <r>   56.9295    0.0000 </r>
       <r>   59.1768    0.0000 </r>
       <r>   59.1768    0.0000 </r>
       <r>   63.2079    0.0000 </r>
       <r>   63.2079    0.0000 </r>
       <r>   63.2127    0.0000 </r>
       <r>   63.2127    0.0000 </r>
       <r>   63.9197    0.0000 </r>
       <r>   63.9197    0.0000 </r>
       <r>   66.2331    0.0000 </r>
       <r>   66.2331    0.0000 </r>
       <r>   68.9164    0.0000 </r>
       <r>   68.9164    0.0000 </r>
       <r>   69.0898    0.0000 </r>
       <r>   69.0898    0.0000 </r>
       <r>   71.8342    0.0000 </r>
       <r>   71.8342    0.0000 </r>
       <r>   72.7505    0.0000 </r>
       <r>   72.7505    0.0000 </r>
       <r>   74.1329    0.0000 </r>
       <r>   74.1329    0.0000 </r>
       <r>   75.4157    0.0000 </r>
       <r>   75.4157    0.0000 </r>
       <r>   79.3795    0.0000 </r>
       <r>   79.3795    0.0000 </r>
       <r>   80.3747    0.0000 </r>
       <r>   80.3747    0.0000 </r>
       <r>   81.5554    0.0000 </r>
       <r>   81.5554    0.0000 </r>
       <r>   82.2256    0.0000 </r>
       <r>   82.2256    0.0000 </r>
       <r>   83.8873    0.0000 </r>
       <r>   83.8873    0.0000 </r>
       <r>   85.5440    0.0000 </r>
       <r>   85.5440    0.0000 </r>
       <r>   86.1640    0.0000 </r>
       <r>   86.1640    0.0000 </r>
       <r>   86.6040    0.0000 </r>
       <r>   86.6040    0.0000 </r>
       <r>   90.8143    0.0000 </r>
       <r>   90.8143    0.0000 </r>
       <r>   93.0997    0.0000 </r>
       <r>   93.0997    0.0000 </r>
       <r>   95.3862    0.0000 </r>
       <r>   95.3862    0.0000 </r>
       <r>   95.7925    0.0000 </r>
       <r>   95.7925    0.0000 </r>
       <r>   96.6407    0.0000 </r>
       <r>   96.6407    0.0000 </r>
       <r>   96.7587    0.0000 </r>
       <r>   96.7587    0.0000 </r>
       <r>   97.8627    0.0000 </r>
       <r>   97.8627    0.0000 </r>
       <r>   98.4687    0.0000 </r>
       <r>   98.4687    0.0000 </r>
       <r>   98.5995    0.0000 </r>
       <r>   98.5995    0.0000 </r>
       <r>   99.8303    0.0000 </r>
       <r>   99.8303    0.0000 </r>
       <r>  102.6400    0.0000 </r>
       <r>  102.6400    0.0000 </r>
       <r>  104.3890    0.0000 </r>
       <r>  104.3890    0.0000 </r>
       <r>  105.8407    0.0000 </r>
       <r>  105.8407    0.0000 </r>
       <r>  106.3238    0.0000 </r>
       <r>  106.3238    0.0000 </r>
       <r>  107.9281    0.0000 </r>
       <r>  107.9281    0.0000 </r>
       <r>  109.3190    0.0000 </r>
       <r>  109.3190    0.0000 </r>
       <r>  112.3069    0.0000 </r>
       <r>  112.3343    0.0000 </r>
      </set>
      <set comment="kpoint 7">
       <r>  -13.4155    1.0000 </r>
       <r>  -13.4155    1.0000 </r>
       <r>   -7.7104    1.0000 </r>
       <r>   -7.7104    1.0000 </r>
       <r>   -2.9753    1.0000 </r>
       <r>   -2.9753    1.0000 </r>
       <r>    0.2246    1.0000 </r>
       <r>    0.2246    1.0000 </r>
       <r>    5.8758    0.0000 </r>
       <r>    5.8758    0.0000 </r>
       <r>   10.8532    0.0000 </r>
       <r>   10.8532    0.0000 </r>
       <r>   14.0275    0.0000 </r>
       <r>   14.0275    0.0000 </r>
       <r>   15.9848    0.0000 </r>
       <r>   15.9848    0.0000 </r>
       <r>   19.4626    0.0000 </r>
       <r>   19.4626    0.0000 </r>
       <r>   22.7081    0.0000 </r>
       <r>   22.7081    0.0000 </r>
       <r>   23.9913    0.0000 </r>
       <r>   23.9913    0.0000 </r>
       <r>   24.2455    0.0000 </r>
       <r>   24.2455    0.0000 </r>
       <r>   28.2832    0.0000 </r>
       <r>   28.2832    0.0000 </r>
       <r>   28.6950    0.0000 </r>
       <r>   28.6950    0.0000 </r>
       <r>   31.9547    0.0000 </r>
       <r>   31.9547    0.0000 </r>
       <r>   32.5199    0.0000 </r>
       <r>   32.5199    0.0000 </r>
       <r>   34.8228    0.0000 </r>
       <r>   34.8228    0.0000 </r>
       <r>   38.7331    0.0000 </r>
       <r>   38.7331    0.0000 </r>
       <r>   42.1239    0.0000 </r>
       <r>   42.1239    0.0000 </r>
       <r>   45.3995    0.0000 </r>
       <r>   45.3995    0.0000 </r>
       <r>   46.3597    0.0000 </r>
       <r>   46.3597    0.0000 </r>
       <r>   51.0392    0.0000 </r>
       <r>   51.0392    0.0000 </r>
       <r>   51.8432    0.0000 </r>
       <r>   51.8432    0.0000 </r>
       <r>   53.9976    0.0000 </r>
       <r>   53.9976    0.0000 </r>
       <r>   54.3538    0.0000 </r>
       <r>   54.3538    0.0000 </r>
       <r>   55.5702    0.0000 </r>
       <r>   55.5702    0.0000 </r>
       <r>   56.7746    0.0000 </r>
       <r>   56.7746    0.0000 </r>
       <r>   58.2995    0.0000 </r>
       <r>   58.2995    0.0000 </r>
       <r>   59.9944    0.0000 </r>
       <r>   59.9944    0.0000 </r>
       <r>   61.4891    0.0000 </r>
       <r>   61.4891    0.0000 </r>
       <r>   63.5156    0.0000 </r>
       <r>   63.5156    0.0000 </r>
       <r>   63.8927    0.0000 </r>
       <r>   63.8927    0.0000 </r>
       <r>   66.6694    0.0000 </r>
       <r>   66.6694    0.0000 </r>
       <r>   66.9745    0.0000 </r>
       <r>   66.9745    0.0000 </r>
       <r>   68.7499    0.0000 </r>
       <r>   68.7499    0.0000 </r>
       <r>   70.6351    0.0000 </r>
       <r>   70.6351    0.0000 </r>
       <r>   71.3333    0.0000 </r>
       <r>   71.3333    0.0000 </r>
       <r>   71.5454    0.0000 </r>
       <r>   71.5454    0.0000 </r>
       <r>   75.1183    0.0000 </r>
       <r>   75.1183    0.0000 </r>
       <r>   76.3622    0.0000 </r>
       <r>   76.3622    0.0000 </r>
       <r>   78.1895    0.0000 </r>
       <r>   78.1895    0.0000 </r>
       <r>   78.4422    0.0000 </r>
       <r>   78.4422    0.0000 </r>
       <r>   79.5318    0.0000 </r>
       <r>   79.5318    0.0000 </r>
       <r>   79.7782    0.0000 </r>
       <r>   79.7782    0.0000 </r>
       <r>   80.3473    0.0000 </r>
       <r>   80.3473    0.0000 </r>
       <r>   81.3574    0.0000 </r>
       <r>   81.3574    0.0000 </r>
       <r>   83.8426    0.0000 </r>
       <r>   83.8426    0.0000 </r>
       <r>   89.1914    0.0000 </r>
       <r>   89.1914    0.0000 </r>
       <r>   90.0301    0.0000 </r>
       <r>   90.0301    0.0000 </r>
       <r>   92.2790    0.0000 </r>
       <r>   92.2790    0.0000 </r>
       <r>   93.1429    0.0000 </r>
       <r>   93.1429    0.0000 </r>
       <r>   94.2357    0.0000 </r>
       <r>   94.2357    0.0000 </r>
       <r>   95.2850    0.0000 </r>
       <r>   95.2850    0.0000 </r>
       <r>   97.1464    0.0000 </r>
       <r>   97.1464    0.0000 </r>
       <r>   98.3708    0.0000 </r>
       <r>   98.3708    0.0000 </r>
       <r>   98.9567    0.0000 </r>
       <r>   98.9567    0.0000 </r>
       <r>  101.2379    0.0000 </r>
       <r>  101.2379    0.0000 </r>
       <r>  101.5772    0.0000 </r>
       <r>  101.5772    0.0000 </r>
       <r>  103.6692    0.0000 </r>
       <r>  103.6692    0.0000 </r>
       <r>  104.3679    0.0000 </r>
       <r>  104.3679    0.0000 </r>
       <r>  104.9904    0.0000 </r>
       <r>  104.9904    0.0000 </r>
       <r>  106.9849    0.0000 </r>
       <r>  106.9849    0.0000 </r>
       <r>  109.9595    0.0000 </r>
       <r>  109.9596    0.0000 </r>
       <r>  110.3250    0.0000 </r>
       <r>  110.3274    0.0000 </r>
      </set>
      <set comment="kpoint 8">
       <r>  -13.5346    1.0000 </r>
       <r>  -13.5346    1.0000 </r>
       <r>   -6.4288    1.0000 </r>
       <r>   -6.4288    1.0000 </r>
       <r>   -4.7150    1.0000 </r>
       <r>   -4.7150    1.0000 </r>
       <r>    0.0124    1.0000 </r>
       <r>    0.0124    1.0000 </r>
       <r>    6.8051    0.0000 </r>
       <r>    6.8051    0.0000 </r>
       <r>   12.4492    0.0000 </r>
       <r>   12.4492    0.0000 </r>
       <r>   14.6543    0.0000 </r>
       <r>   14.6543    0.0000 </r>
       <r>   16.0445    0.0000 </r>
       <r>   16.0445    0.0000 </r>
       <r>   17.3511    0.0000 </r>
       <r>   17.3511    0.0000 </r>
       <r>   20.8344    0.0000 </r>
       <r>   20.8344    0.0000 </r>
       <r>   21.8142    0.0000 </r>
       <r>   21.8142    0.0000 </r>
       <r>   25.3931    0.0000 </r>
       <r>   25.3931    0.0000 </r>
       <r>   28.0268    0.0000 </r>
       <r>   28.0268    0.0000 </r>
       <r>   29.1727    0.0000 </r>
       <r>   29.1727    0.0000 </r>
       <r>   31.0507    0.0000 </r>
       <r>   31.0507    0.0000 </r>
       <r>   37.2550    0.0000 </r>
       <r>   37.2550    0.0000 </r>
       <r>   37.7433    0.0000 </r>
       <r>   37.7433    0.0000 </r>
       <r>   38.4927    0.0000 </r>
       <r>   38.4927    0.0000 </r>
       <r>   43.1833    0.0000 </r>
       <r>   43.1833    0.0000 </r>
       <r>   44.3310    0.0000 </r>
       <r>   44.3310    0.0000 </r>
       <r>   45.9511    0.0000 </r>
       <r>   45.9511    0.0000 </r>
       <r>   47.7350    0.0000 </r>
       <r>   47.7350    0.0000 </r>
       <r>   48.9629    0.0000 </r>
       <r>   48.9629    0.0000 </r>
       <r>   52.2101    0.0000 </r>
       <r>   52.2101    0.0000 </r>
       <r>   53.3385    0.0000 </r>
       <r>   53.3385    0.0000 </r>
       <r>   57.2384    0.0000 </r>
       <r>   57.2384    0.0000 </r>
       <r>   57.8236    0.0000 </r>
       <r>   57.8236    0.0000 </r>
       <r>   58.8648    0.0000 </r>
       <r>   58.8648    0.0000 </r>
       <r>   60.1675    0.0000 </r>
       <r>   60.1675    0.0000 </r>
       <r>   61.2492    0.0000 </r>
       <r>   61.2492    0.0000 </r>
       <r>   62.2552    0.0000 </r>
       <r>   62.2552    0.0000 </r>
       <r>   63.2757    0.0000 </r>
       <r>   63.2757    0.0000 </r>
       <r>   66.1139    0.0000 </r>
       <r>   66.1139    0.0000 </r>
       <r>   66.9111    0.0000 </r>
       <r>   66.9111    0.0000 </r>
       <r>   68.1602    0.0000 </r>
       <r>   68.1602    0.0000 </r>
       <r>   71.4922    0.0000 </r>
       <r>   71.4922    0.0000 </r>
       <r>   73.4875    0.0000 </r>
       <r>   73.4875    0.0000 </r>
       <r>   74.4636    0.0000 </r>
       <r>   74.4636    0.0000 </r>
       <r>   75.1000    0.0000 </r>
       <r>   75.1000    0.0000 </r>
       <r>   76.7368    0.0000 </r>
       <r>   76.7368    0.0000 </r>
       <r>   77.7039    0.0000 </r>
       <r>   77.7039    0.0000 </r>
       <r>   80.3249    0.0000 </r>
       <r>   80.3249    0.0000 </r>
       <r>   80.8569    0.0000 </r>
       <r>   80.8569    0.0000 </r>
       <r>   82.7276    0.0000 </r>
       <r>   82.7276    0.0000 </r>
       <r>   83.9011    0.0000 </r>
       <r>   83.9011    0.0000 </r>
       <r>   84.6684    0.0000 </r>
       <r>   84.6684    0.0000 </r>
       <r>   85.1338    0.0000 </r>
       <r>   85.1338    0.0000 </r>
       <r>   85.8300    0.0000 </r>
       <r>   85.8300    0.0000 </r>
       <r>   86.4913    0.0000 </r>
       <r>   86.4913    0.0000 </r>
       <r>   88.0756    0.0000 </r>
       <r>   88.0756    0.0000 </r>
       <r>   91.6219    0.0000 </r>
       <r>   91.6219    0.0000 </r>
       <r>   92.6511    0.0000 </r>
       <r>   92.6511    0.0000 </r>
       <r>   93.9877    0.0000 </r>
       <r>   93.9877    0.0000 </r>
       <r>   95.1211    0.0000 </r>
       <r>   95.1211    0.0000 </r>
       <r>   96.4252    0.0000 </r>
       <r>   96.4252    0.0000 </r>
       <r>   99.5576    0.0000 </r>
       <r>   99.5576    0.0000 </r>
       <r>  100.3093    0.0000 </r>
       <r>  100.3093    0.0000 </r>
       <r>  101.0947    0.0000 </r>
       <r>  101.0947    0.0000 </r>
       <r>  101.5284    0.0000 </r>
       <r>  101.5284    0.0000 </r>
       <r>  103.7697    0.0000 </r>
       <r>  103.7697    0.0000 </r>
       <r>  106.6111    0.0000 </r>
       <r>  106.6111    0.0000 </r>
       <r>  107.0288    0.0000 </r>
       <r>  107.0288    0.0000 </r>
       <r>  107.7264    0.0000 </r>
       <r>  107.7267    0.0000 </r>
       <r>  108.0285    0.0000 </r>
       <r>  108.0329    0.0000 </r>
      </set>
     </set>
    </set>
   </array>
  </eigenvalues>
  <separator name="orbital magnetization" >
   <v name="MAGDIPOLOUT">      0.00000000      0.00000000      0.00000000</v>
  </separator>
  <dos>
   <i name="efermi">      1.19549699 </i>
   <total>
    <array>
     <dimension dim="1">gridpoints</dimension>
     <dimension dim="2">spin</dimension>
     <field>energy</field>
     <field>total</field>
     <field>integrated</field>
     <set>
      <set comment="spin 1">
       <r>   -22.9586     0.0000     0.0000 </r>
       <r>   -22.4861     0.0000     0.0000 </r>
       <r>   -22.0137     0.0000     0.0000 </r>
       <r>   -21.5412     0.0000     0.0000 </r>
       <r>   -21.0688     0.0000     0.0000 </r>
       <r>   -20.5963     0.0000     0.0000 </r>
       <r>   -20.1239     0.0000     0.0000 </r>
       <r>   -19.6514     0.0000     0.0000 </r>
       <r>   -19.1790     0.0000     0.0000 </r>
       <r>   -18.7065     0.0000     0.0000 </r>
       <r>   -18.2341     0.0000     0.0000 </r>
       <r>   -17.7616     0.0000     0.0000 </r>
       <r>   -17.2892     0.0000     0.0000 </r>
       <r>   -16.8167     0.0000     0.0000 </r>
       <r>   -16.3443     0.5045     0.2384 </r>
       <r>   -15.8718     0.0246     0.2500 </r>
       <r>   -15.3994     0.5508     0.5102 </r>
       <r>   -14.9269     2.6242     1.7500 </r>
       <r>   -14.4545     0.0000     1.7500 </r>
       <r>   -13.9820     0.0000     1.7500 </r>
       <r>   -13.5095     2.1656     2.7731 </r>
       <r>   -13.0371     2.5968     4.0000 </r>
       <r>   -12.5646     0.0000     4.0000 </r>
       <r>   -12.0922     0.0000     4.0000 </r>
       <r>   -11.6197     0.0000     4.0000 </r>
       <r>   -11.1473     0.0000     4.0000 </r>
       <r>   -10.6748     0.0000     4.0000 </r>
       <r>   -10.2024     0.0000     4.0000 </r>
       <r>    -9.7299     0.0000     4.0000 </r>
       <r>    -9.2575     0.0000     4.0000 </r>
       <r>    -8.7850     0.0000     4.0000 </r>
       <r>    -8.3126     0.0000     4.0000 </r>
       <r>    -7.8401     0.0533     4.0252 </r>
       <r>    -7.3677     1.5342     4.7500 </r>
       <r>    -6.8952     0.0000     4.7500 </r>
       <r>    -6.4228     1.6914     5.5491 </r>
       <r>    -5.9503     1.4835     6.2500 </r>
       <r>    -5.4779     0.0000     6.2500 </r>
       <r>    -5.0054     0.0001     6.2500 </r>
       <r>    -4.5330     3.2247     7.7735 </r>
       <r>    -4.0605     0.4237     7.9737 </r>
       <r>    -3.5881     3.1457     9.4599 </r>
       <r>    -3.1156     0.1279     9.5204 </r>
       <r>    -2.6432     2.4279    10.6674 </r>
       <r>    -2.1707     1.5671    11.4078 </r>
       <r>    -1.6983     3.7009    13.1563 </r>
       <r>    -1.2258     0.1984    13.2500 </r>
       <r>    -0.7534     0.0000    13.2500 </r>
       <r>    -0.2809     0.4525    13.4638 </r>
       <r>     0.1915     3.6831    15.2039 </r>
       <r>     0.6640     1.6849    15.9999 </r>
       <r>     1.1364     0.0002    16.0000 </r>
       <r>     1.6089     0.0000    16.0000 </r>
       <r>     2.0813     0.0000    16.0000 </r>
       <r>     2.5538     0.0000    16.0000 </r>
       <r>     3.0262     0.0000    16.0000 </r>
       <r>     3.4987     0.0000    16.0000 </r>
       <r>     3.9711     0.0000    16.0000 </r>
       <r>     4.4436     0.0000    16.0000 </r>
       <r>     4.9161     0.0000    16.0000 </r>
       <r>     5.3885     0.0005    16.0002 </r>
       <r>     5.8610     0.8561    16.4047 </r>
       <r>     6.3334     0.7872    16.7766 </r>
       <r>     6.8059     1.3459    17.4125 </r>
       <r>     7.2783     1.9635    18.3401 </r>
       <r>     7.7508     0.9802    18.8032 </r>
       <r>     8.2232     0.0196    18.8125 </r>
       <r>     8.6957     1.3306    19.4411 </r>
       <r>     9.1681     0.2601    19.5640 </r>
       <r>     9.6406     0.8150    19.9491 </r>
       <r>    10.1130     0.1081    20.0001 </r>
       <r>    10.5855     1.1022    20.5209 </r>
       <r>    11.0579     2.7518    21.8209 </r>
       <r>    11.5304     1.2745    22.4231 </r>
       <r>    12.0028     0.4548    22.6380 </r>
       <r>    12.4753     3.4845    24.2842 </r>
       <r>    12.9477     1.6473    25.0625 </r>
       <r>    13.4202     0.9394    25.5063 </r>
       <r>    13.8926     0.6897    25.8322 </r>
       <r>    14.3651     1.9426    26.7500 </r>
       <r>    14.8375     2.9960    28.1654 </r>
       <r>    15.3100     1.1601    28.7135 </r>
       <r>    15.7824     1.3771    29.3641 </r>
       <r>    16.2549     2.5341    30.5614 </r>
       <r>    16.7273     0.0028    30.5627 </r>
       <r>    17.1998     3.9203    32.4149 </r>
       <r>    17.6722     4.4134    34.5000 </r>
       <r>    18.1447     1.0193    34.9815 </r>
       <r>    18.6171     0.5682    35.2500 </r>
       <r>    19.0896     0.1319    35.3123 </r>
       <r>    19.5620     0.7363    35.6602 </r>
       <r>    20.0345     1.2282    36.2405 </r>
       <r>    20.5069     1.9341    37.1542 </r>
       <r>    20.9794     3.9212    39.0068 </r>
       <r>    21.4518     1.3208    39.6308 </r>
       <r>    21.9243     1.7449    40.4552 </r>
       <r>    22.3967     0.6151    40.7459 </r>
       <r>    22.8692     1.7618    41.5782 </r>
       <r>    23.3417     1.0164    42.0584 </r>
       <r>    23.8141     1.0139    42.5374 </r>
       <r>    24.2866     1.4178    43.2073 </r>
       <r>    24.7590     1.9241    44.1163 </r>
       <r>    25.2315     1.2108    44.6883 </r>
       <r>    25.7039     2.0121    45.6389 </r>
       <r>    26.1764     2.0152    46.5910 </r>
       <r>    26.6488     1.1107    47.1158 </r>
       <r>    27.1213     1.3188    47.7389 </r>
       <r>    27.5937     0.0691    47.7715 </r>
       <r>    28.0662     1.8786    48.6591 </r>
       <r>    28.5386     3.4370    50.2829 </r>
       <r>    29.0111     2.6704    51.5445 </r>
       <r>    29.4835     3.0802    52.9997 </r>
       <r>    29.9560     3.1150    54.4714 </r>
       <r>    30.4284     1.1923    55.0347 </r>
       <r>    30.9009     3.2178    56.5550 </r>
       <r>    31.3733     1.6034    57.3125 </r>
       <r>    31.8458     1.1885    57.8740 </r>
       <r>    32.3182     1.5588    58.6105 </r>
       <r>    32.7907     1.9921    59.5516 </r>
       <r>    33.2631     0.7447    59.9035 </r>
       <r>    33.7356     1.1395    60.4419 </r>
       <r>    34.2080     2.9011    61.8125 </r>
       <r>    34.6805     0.0176    61.8208 </r>
       <r>    35.1529     0.7792    62.1889 </r>
       <r>    35.6254     1.0499    62.6850 </r>
       <r>    36.0978     2.8249    64.0196 </r>
       <r>    36.5703     0.6548    64.3290 </r>
       <r>    37.0427     2.0035    65.2755 </r>
       <r>    37.5152     2.3954    66.4073 </r>
       <r>    37.9876     2.1803    67.4373 </r>
       <r>    38.4601     1.8566    68.3145 </r>
       <r>    38.9325     3.1682    69.8113 </r>
       <r>    39.4050     0.5567    70.0743 </r>
       <r>    39.8774     0.2511    70.1930 </r>
       <r>    40.3499     3.5497    71.8700 </r>
       <r>    40.8223     1.1237    72.4009 </r>
       <r>    41.2948     2.3174    73.4958 </r>
       <r>    41.7673     0.5533    73.7572 </r>
       <r>    42.2397     3.0703    75.2077 </r>
       <r>    42.7122     2.4871    76.3828 </r>
       <r>    43.1846     1.5828    77.1306 </r>
       <r>    43.6571     1.9157    78.0357 </r>
       <r>    44.1295     3.4805    79.6800 </r>
       <r>    44.6020     1.8678    80.5625 </r>
       <r>    45.0744     1.0165    81.0427 </r>
       <r>    45.5469     2.8033    82.3671 </r>
       <r>    46.0193     2.3612    83.4827 </r>
       <r>    46.4918     4.2339    85.4830 </r>
       <r>    46.9642     1.8597    86.3616 </r>
       <r>    47.4367     1.3509    86.9999 </r>
       <r>    47.9091     2.1411    88.0115 </r>
       <r>    48.3816     0.9469    88.4589 </r>
       <r>    48.8540     2.3968    89.5912 </r>
       <r>    49.3265     5.6234    92.2480 </r>
       <r>    49.7989     0.4844    92.4769 </r>
       <r>    50.2714     1.0951    92.9943 </r>
       <r>    50.7438     2.3933    94.1250 </r>
       <r>    51.2163     1.2724    94.7262 </r>
       <r>    51.6887     2.8518    96.0735 </r>
       <r>    52.1612     4.1081    98.0144 </r>
       <r>    52.6336     1.4248    98.6875 </r>
       <r>    53.1061     1.7450    99.5119 </r>
       <r>    53.5785     3.1040   100.9784 </r>
       <r>    54.0510     1.0576   101.4780 </r>
       <r>    54.5234     2.0811   102.4613 </r>
       <r>    54.9959     1.3327   103.0909 </r>
       <r>    55.4683     1.0711   103.5970 </r>
       <r>    55.9408     2.3691   104.7163 </r>
       <r>    56.4132     1.7900   105.5620 </r>
       <r>    56.8857     1.9626   106.4892 </r>
       <r>    57.3581     4.7125   108.7156 </r>
       <r>    57.8306     2.3844   109.8421 </r>
       <r>    58.3030     4.3487   111.8967 </r>
       <r>    58.7755     1.9647   112.8249 </r>
       <r>    59.2479     4.3538   114.8818 </r>
       <r>    59.7204     0.6468   115.1874 </r>
       <r>    60.1929     2.2058   116.2296 </r>
       <r>    60.6653     1.8226   117.0906 </r>
       <r>    61.1378     0.9178   117.5242 </r>
       <r>    61.6102     2.8692   118.8798 </r>
       <r>    62.0827     1.5564   119.6151 </r>
       <r>    62.5551     2.2606   120.6831 </r>
       <r>    63.0276     0.8243   121.0726 </r>
       <r>    63.5000     5.4640   123.6541 </r>
       <r>    63.9725     2.8022   124.9780 </r>
       <r>    64.4449     2.1426   125.9903 </r>
       <r>    64.9174     2.1946   127.0271 </r>
       <r>    65.3898     1.3903   127.6839 </r>
       <r>    65.8623     0.3299   127.8398 </r>
       <r>    66.3347     5.6556   130.5118 </r>
       <r>    66.8072     2.8028   131.8360 </r>
       <r>    67.2796     3.6780   133.5737 </r>
       <r>    67.7521     2.7558   134.8757 </r>
       <r>    68.2245     2.2919   135.9584 </r>
       <r>    68.6970     1.0896   136.4732 </r>
       <r>    69.1694     5.9168   139.2686 </r>
       <r>    69.6419     1.2081   139.8394 </r>
       <r>    70.1143     0.0754   139.8750 </r>
       <r>    70.5868     0.2747   140.0048 </r>
       <r>    71.0592     1.3137   140.6254 </r>
       <r>    71.5317     4.2404   142.6288 </r>
       <r>    72.0041     3.5515   144.3067 </r>
       <r>    72.4766     1.4885   145.0099 </r>
       <r>    72.9490     4.0050   146.9021 </r>
       <r>    73.4215     1.1467   147.4439 </r>
       <r>    73.8939     1.8796   148.3319 </r>
       <r>    74.3664     3.7117   150.0855 </r>
       <r>    74.8388     3.8493   151.9041 </r>
       <r>    75.3113     4.8071   154.1752 </r>
       <r>    75.7837     2.5017   155.3571 </r>
       <r>    76.2562     2.3211   156.4537 </r>
       <r>    76.7286     1.7673   157.2887 </r>
       <r>    77.2011     2.3050   158.3777 </r>
       <r>    77.6735     2.3692   159.4970 </r>
       <r>    78.1460     1.7504   160.3240 </r>
       <r>    78.6184     3.8113   162.1246 </r>
       <r>    79.0909     1.2832   162.7309 </r>
       <r>    79.5634     3.7334   164.4947 </r>
       <r>    80.0358     2.3402   165.6004 </r>
       <r>    80.5083     6.2127   168.5355 </r>
       <r>    80.9807     2.0240   169.4918 </r>
       <r>    81.4532     1.3301   170.1202 </r>
       <r>    81.9256     2.3755   171.2425 </r>
       <r>    82.3981     3.7916   173.0338 </r>
       <r>    82.8705     2.9367   174.4213 </r>
       <r>    83.3430     0.0842   174.4611 </r>
       <r>    83.8154     1.7113   175.2696 </r>
       <r>    84.2879     5.0319   177.6469 </r>
       <r>    84.7603     4.2228   179.6420 </r>
       <r>    85.2328     3.1899   181.1491 </r>
       <r>    85.7052     4.2351   183.1500 </r>
       <r>    86.1777     3.2814   184.7003 </r>
       <r>    86.6501     4.8325   186.9834 </r>
       <r>    87.1226     0.7896   187.3565 </r>
       <r>    87.5950     1.4902   188.0605 </r>
       <r>    88.0675     1.1891   188.6223 </r>
       <r>    88.5399     3.2328   190.1496 </r>
       <r>    89.0124     3.6079   191.8542 </r>
       <r>    89.4848     2.5348   193.0518 </r>
       <r>    89.9573     1.2074   193.6222 </r>
       <r>    90.4297     2.1568   194.6412 </r>
       <r>    90.9022     3.6487   196.3650 </r>
       <r>    91.3746     0.7611   196.7246 </r>
       <r>    91.8471     2.5676   197.9376 </r>
       <r>    92.3195     2.1559   198.9562 </r>
       <r>    92.7920     1.9035   199.8555 </r>
       <r>    93.2644     4.2693   201.8726 </r>
       <r>    93.7369     1.8291   202.7367 </r>
       <r>    94.2093     3.7478   204.5074 </r>
       <r>    94.6818     0.7894   204.8804 </r>
       <r>    95.1542     3.6082   206.5851 </r>
       <r>    95.6267     3.9698   208.4606 </r>
       <r>    96.0991     3.7727   210.2430 </r>
       <r>    96.5716     4.4750   212.3572 </r>
       <r>    97.0440     5.0175   214.7277 </r>
       <r>    97.5165     2.0117   215.6782 </r>
       <r>    97.9890     2.5125   216.8652 </r>
       <r>    98.4614     4.3691   218.9294 </r>
       <r>    98.9339     6.0943   221.8087 </r>
       <r>    99.4063     0.5652   222.0757 </r>
       <r>    99.8788     4.0395   223.9842 </r>
       <r>   100.3512     2.8213   225.3171 </r>
       <r>   100.8237     1.8473   226.1899 </r>
       <r>   101.2961     5.8417   228.9498 </r>
       <r>   101.7686     3.0086   230.3712 </r>
       <r>   102.2410     1.3334   231.0012 </r>
       <r>   102.7135     2.0708   231.9795 </r>
       <r>   103.1859     2.2921   233.0624 </r>
       <r>   103.6584     1.8677   233.9448 </r>
       <r>   104.1308     5.1276   236.3674 </r>
       <r>   104.6033     3.6300   238.0824 </r>
       <r>   105.0757     1.8411   238.9522 </r>
       <r>   105.5482     3.0106   240.3745 </r>
       <r>   106.0206     2.9026   241.7459 </r>
       <r>   106.4931     2.2695   242.8181 </r>
       <r>   106.9655     3.7300   244.5804 </r>
       <r>   107.4380     2.3418   245.6867 </r>
       <r>   107.9104     4.2986   247.7176 </r>
       <r>   108.3829     5.6672   250.3951 </r>
       <r>   108.8553     1.2779   250.9988 </r>
       <r>   109.3278     1.4769   251.6966 </r>
       <r>   109.8002     1.2078   252.2672 </r>
       <r>   110.2727     1.7305   253.0848 </r>
       <r>   110.7451     2.0899   254.0722 </r>
       <r>   111.2176     1.3025   254.6876 </r>
       <r>   111.6900     0.3066   254.8324 </r>
       <r>   112.1625     0.9062   255.2605 </r>
       <r>   112.6349     1.5651   256.0000 </r>
       <r>   113.1074     0.0000   256.0000 </r>
       <r>   113.5798     0.0000   256.0000 </r>
       <r>   114.0523     0.0000   256.0000 </r>
       <r>   114.5247     0.0000   256.0000 </r>
       <r>   114.9972     0.0000   256.0000 </r>
       <r>   115.4696     0.0000   256.0000 </r>
       <r>   115.9421     0.0000   256.0000 </r>
       <r>   116.4146     0.0000   256.0000 </r>
       <r>   116.8870     0.0000   256.0000 </r>
       <r>   117.3595     0.0000   256.0000 </r>
       <r>   117.8319     0.0000   256.0000 </r>
       <r>   118.3044     0.0000   256.0000 </r>
       <r>   118.7768     0.0000   256.0000 </r>
      </set>
     </set>
    </array>
   </total>
  </dos>
 </calculation>
 <structure name="finalpos" >
  <crystal>
   <varray name="basis" >
    <v>       2.51242823       0.00000000       0.00000000 </v>
    <v>      -1.25621411       2.17582667       0.00000000 </v>
    <v>       0.00000000       0.00000000       7.70726500 </v>
   </varray>
   <i name="volume">     42.13259925 </i>
   <varray name="rec_basis" >
    <v>       0.39802132       0.22979772       0.00000000 </v>
    <v>       0.00000000       0.45959543       0.00000000 </v>
    <v>       0.00000000       0.00000000       0.12974771 </v>
   </varray>
  </crystal>
  <varray name="positions" >
   <v>       0.33333333       0.66666667       0.25000000 </v>
   <v>       0.66666667       0.33333333       0.75000000 </v>
   <v>       0.33333333       0.66666667       0.75000000 </v>
   <v>       0.66666667       0.33333333       0.25000000 </v>
  </varray>
 </structure>
</modeling>
