   2   2   0   0
  0.5696752E+01  0.2525752E-09  0.2525752E-09  0.2525752E-09  0.1000000E-15
  1.000000000000000E-004
  CAR 
 unknown system                          
    299.41584454    -26.52897061  301     10.68306246      1.00000000
    -26.529  0.0000E+00  0.0000E+00
    -25.442  0.0000E+00  0.0000E+00
    -24.356  0.0000E+00  0.0000E+00
    -23.270  0.0000E+00  0.0000E+00
    -22.183  0.0000E+00  0.0000E+00
    -21.097  0.0000E+00  0.0000E+00
    -20.010  0.0000E+00  0.0000E+00
    -18.924  0.0000E+00  0.0000E+00
    -17.837  0.0000E+00  0.0000E+00
    -16.751  0.0000E+00  0.0000E+00
    -15.664  0.0000E+00  0.0000E+00
    -14.578  0.0000E+00  0.0000E+00
    -13.491  0.0000E+00  0.0000E+00
    -12.405  0.0000E+00  0.0000E+00
    -11.318  0.1151E-02  0.1250E-02
    -10.232  0.6189E-05  0.1257E-02
     -9.145  0.2301E-02  0.8750E-02
     -8.059  0.0000E+00  0.8750E-02
     -6.972  0.4602E-02  0.1375E-01
     -5.886  0.5324E-02  0.1953E-01
     -4.799  0.0000E+00  0.3375E-01
     -3.713  0.9401E-03  0.3477E-01
     -2.626  0.6903E-02  0.4625E-01
     -1.540  0.6074E-10  0.5125E-01
     -0.453  0.1381E-01  0.6625E-01
      0.633  0.1531E-06  0.6625E-01
      1.720  0.4602E-02  0.7625E-01
      2.806  0.6676E-02  0.8350E-01
      3.893  0.6903E-02  0.1087E+00
      4.979  0.1429E-01  0.1243E+00
      6.066  0.4602E-02  0.1313E+00
      7.152  0.1381E-01  0.1462E+00
      8.238  0.9204E-02  0.1562E+00
      9.325  0.4807E-05  0.1563E+00
     10.411  0.0000E+00  0.1600E+00
     11.498  0.0000E+00  0.1600E+00
     12.584  0.0000E+00  0.1600E+00
     13.671  0.1437E-05  0.1600E+00
     14.757  0.6903E-02  0.1700E+00
     15.844  0.1726E-01  0.1887E+00
     16.930  0.2522E-06  0.1888E+00
     18.017  0.1860E-01  0.2190E+00
     19.103  0.8845E-07  0.2238E+00
     20.190  0.1143E-01  0.2362E+00
     21.276  0.1841E-01  0.2563E+00
     22.363  0.2324E-01  0.2815E+00
     23.449  0.4602E-02  0.3025E+00
     24.536  0.4602E-02  0.3075E+00
     25.622  0.4602E-02  0.3125E+00
     26.709  0.6903E-02  0.3200E+00
     27.795  0.0000E+00  0.3200E+00
     28.882  0.2096E-02  0.3223E+00
     29.968  0.1890E-01  0.3468E+00
     31.055  0.5145E-02  0.3593E+00
     32.141  0.1151E-01  0.3763E+00
     33.228  0.1417E-01  0.3991E+00
     34.314  0.4602E-02  0.4088E+00
     35.401  0.1380E-01  0.4237E+00
     36.487  0.2302E-02  0.4263E+00
     37.574  0.3451E-02  0.4450E+00
     38.660  0.9274E-03  0.4460E+00
     39.746  0.4536E-02  0.4524E+00
     40.833  0.1381E-01  0.4675E+00
     41.919  0.1132E-01  0.4798E+00
     43.006  0.4792E-02  0.4852E+00
     44.092  0.1142E-02  0.4962E+00
     45.179  0.1476E-01  0.5123E+00
     46.265  0.0000E+00  0.5188E+00
     47.352  0.4465E-02  0.5236E+00
     48.438  0.9204E-02  0.5362E+00
     49.525  0.3049E-09  0.5363E+00
     50.611  0.2187E-01  0.5600E+00
     51.698  0.1798E-01  0.5808E+00
     52.784  0.9204E-02  0.5912E+00
     53.871  0.1841E-01  0.6112E+00
     54.957  0.2051E-01  0.6335E+00
     56.044  0.1542E-02  0.6404E+00
     57.130  0.4602E-02  0.6475E+00
     58.217  0.6903E-02  0.6625E+00
     59.303  0.6903E-02  0.6700E+00
     60.390  0.3452E-01  0.7075E+00
     61.476  0.1381E-01  0.7225E+00
     62.563  0.9204E-02  0.7425E+00
     63.649  0.2354E-02  0.7451E+00
     64.736  0.1464E-01  0.7634E+00
     65.822  0.2648E-02  0.7704E+00
     66.909  0.1381E-01  0.7975E+00
     67.995  0.8678E-02  0.8069E+00
     69.082  0.2318E-01  0.8327E+00
     70.168  0.7584E-03  0.8383E+00
     71.254  0.0000E+00  0.8525E+00
     72.341  0.1840E-01  0.8725E+00
     73.427  0.9204E-02  0.8825E+00
     74.514  0.4602E-02  0.8875E+00
     75.600  0.2016E-01  0.9094E+00
     76.687  0.7794E-02  0.9210E+00
     77.773  0.4102E-01  0.9658E+00
     78.860  0.9204E-02  0.9812E+00
     79.946  0.1372E-02  0.9827E+00
     81.033  0.9204E-02  0.9988E+00
     82.119  0.2529E-01  0.1026E+01
     83.206  0.3598E-02  0.1030E+01
     84.292  0.9204E-02  0.1055E+01
     85.379  0.1747E-01  0.1074E+01
     86.465  0.2301E-01  0.1102E+01
     87.552  0.1745E-02  0.1104E+01
     88.638  0.2529E-01  0.1139E+01
     89.725  0.1381E-01  0.1154E+01
     90.811  0.4602E-02  0.1159E+01
     91.898  0.2482E-01  0.1186E+01
     92.984  0.4597E-02  0.1196E+01
     94.071  0.9204E-02  0.1206E+01
     95.157  0.1695E-01  0.1225E+01
     96.244  0.7719E-02  0.1236E+01
     97.330  0.1461E-01  0.1253E+01
     98.417  0.2756E-07  0.1263E+01
     99.503  0.6903E-02  0.1270E+01
    100.590  0.4433E-01  0.1318E+01
    101.676  0.4136E-02  0.1337E+01
    102.762  0.2301E-02  0.1345E+01
    103.849  0.1841E-01  0.1365E+01
    104.935  0.1974E-01  0.1399E+01
    106.022  0.1566E-01  0.1422E+01
    107.108  0.1143E-01  0.1435E+01
    108.195  0.2807E-01  0.1466E+01
    109.281  0.2761E-01  0.1496E+01
    110.368  0.6903E-02  0.1504E+01
    111.454  0.4602E-02  0.1514E+01
    112.541  0.1380E-01  0.1529E+01
    113.627  0.9317E-02  0.1539E+01
    114.714  0.6541E-05  0.1545E+01
    115.800  0.3146E-02  0.1558E+01
    116.887  0.4574E-01  0.1610E+01
    117.973  0.8067E-02  0.1619E+01
    119.060  0.5753E-02  0.1640E+01
    120.146  0.1782E-01  0.1659E+01
    121.233  0.1726E-01  0.1687E+01
    122.319  0.4604E-02  0.1693E+01
    123.406  0.4602E-02  0.1703E+01
    124.492  0.4070E-01  0.1747E+01
    125.579  0.1151E-01  0.1760E+01
    126.665  0.9272E-02  0.1770E+01
    127.752  0.2182E-01  0.1799E+01
    128.838  0.3236E-02  0.1802E+01
    129.925  0.5840E-02  0.1829E+01
    131.011  0.2081E-01  0.1864E+01
    132.098  0.2062E-01  0.1891E+01
    133.184  0.0000E+00  0.1901E+01
    134.270  0.2237E-01  0.1926E+01
    135.357  0.4362E-01  0.1974E+01
    136.443  0.1362E-01  0.1994E+01
    137.530  0.9217E-02  0.2005E+01
    138.616  0.2279E-02  0.2020E+01
    139.703  0.4602E-02  0.2028E+01
    140.789  0.6903E-02  0.2040E+01
    141.876  0.1253E-01  0.2054E+01
    142.962  0.9197E-02  0.2094E+01
    144.049  0.3020E-01  0.2127E+01
    145.135  0.4602E-02  0.2136E+01
    146.222  0.4633E-02  0.2141E+01
    147.308  0.8590E-05  0.2156E+01
    148.395  0.1439E-01  0.2177E+01
    149.481  0.2532E-01  0.2206E+01
    150.568  0.1255E-01  0.2225E+01
    151.654  0.1930E-01  0.2252E+01
    152.741  0.2144E-06  0.2266E+01
    153.827  0.3222E-01  0.2306E+01
    154.914  0.2301E-02  0.2319E+01
    156.000  0.1841E-01  0.2339E+01
    157.087  0.9212E-02  0.2349E+01
    158.173  0.3234E-01  0.2404E+01
    159.260  0.0000E+00  0.2426E+01
    160.346  0.5743E-07  0.2426E+01
    161.433  0.2412E-01  0.2452E+01
    162.519  0.5590E-02  0.2460E+01
    163.606  0.3422E-01  0.2516E+01
    164.692  0.3924E-01  0.2561E+01
    165.778  0.4602E-02  0.2584E+01
    166.865  0.1841E-01  0.2604E+01
    167.951  0.4220E-01  0.2650E+01
    169.038  0.4027E-02  0.2657E+01
    170.124  0.1611E-01  0.2675E+01
    171.211  0.7950E-02  0.2684E+01
    172.297  0.4602E-02  0.2690E+01
    173.384  0.3112E-02  0.2693E+01
    174.470  0.1379E-01  0.2717E+01
    175.557  0.3647E-01  0.2757E+01
    176.643  0.1586E-01  0.2777E+01
    177.730  0.1143E-01  0.2795E+01
    178.816  0.5753E-02  0.2816E+01
    179.903  0.1077E-01  0.2828E+01
    180.989  0.9500E-02  0.2849E+01
    182.076  0.1370E-01  0.2887E+01
    183.162  0.2784E-01  0.2930E+01
    184.249  0.6903E-02  0.2948E+01
    185.335  0.8941E-02  0.2957E+01
    186.422  0.6920E-02  0.2980E+01
    187.508  0.1841E-01  0.3013E+01
    188.595  0.2400E-01  0.3044E+01
    189.681  0.7914E-02  0.3056E+01
    190.768  0.3463E-01  0.3129E+01
    191.854  0.4213E-02  0.3138E+01
    192.941  0.2358E-09  0.3146E+01
    194.027  0.2510E-01  0.3174E+01
    195.114  0.2301E-01  0.3209E+01
    196.200  0.4602E-02  0.3214E+01
    197.286  0.7038E-02  0.3221E+01
    198.373  0.2359E-01  0.3252E+01
    199.459  0.1228E-01  0.3282E+01
    200.546  0.3693E-01  0.3326E+01
    201.632  0.1070E-01  0.3343E+01
    202.719  0.2467E-01  0.3376E+01
    203.805  0.1499E-01  0.3411E+01
    204.892  0.1381E-01  0.3441E+01
    205.978  0.2301E-01  0.3466E+01
    207.065  0.1725E-01  0.3492E+01
    208.151  0.9455E-02  0.3503E+01
    209.238  0.3722E-02  0.3512E+01
    210.324  0.2641E-01  0.3560E+01
    211.411  0.3121E-01  0.3600E+01
    212.497  0.1614E-13  0.3606E+01
    213.584  0.6903E-02  0.3614E+01
    214.670  0.4947E-02  0.3619E+01
    215.757  0.1832E-01  0.3655E+01
    216.843  0.2492E-01  0.3682E+01
    217.930  0.1381E-01  0.3704E+01
    219.016  0.1841E-01  0.3724E+01
    220.103  0.2727E-01  0.3758E+01
    221.189  0.1829E-01  0.3779E+01
    222.276  0.5751E-02  0.3785E+01
    223.362  0.5118E-01  0.3841E+01
    224.449  0.1930E-01  0.3867E+01
    225.535  0.8773E-02  0.3882E+01
    226.622  0.1572E-01  0.3927E+01
    227.708  0.3032E-01  0.3960E+01
    228.794  0.2531E-01  0.3997E+01
    229.881  0.2050E-01  0.4020E+01
    230.967  0.2314E-01  0.4053E+01
    232.054  0.2538E-01  0.4090E+01
    233.140  0.2825E-01  0.4128E+01
    234.227  0.1359E-01  0.4162E+01
    235.313  0.2301E-01  0.4190E+01
    236.400  0.2037E-01  0.4212E+01
    237.486  0.1398E-01  0.4240E+01
    238.573  0.1404E-01  0.4258E+01
    239.659  0.1589E-01  0.4282E+01
    240.746  0.0000E+00  0.4290E+01
    241.832  0.1381E-01  0.4305E+01
    242.919  0.4605E-02  0.4310E+01
    244.005  0.1057E-01  0.4336E+01
    245.092  0.1687E-01  0.4358E+01
    246.178  0.3298E-01  0.4416E+01
    247.265  0.9822E-02  0.4448E+01
    248.351  0.1094E-01  0.4469E+01
    249.438  0.2250E-01  0.4518E+01
    250.524  0.8913E-02  0.4528E+01
    251.611  0.3090E-01  0.4562E+01
    252.697  0.5945E-04  0.4565E+01
    253.784  0.2761E-01  0.4600E+01
    254.870  0.7787E-02  0.4608E+01
    255.957  0.3781E-01  0.4659E+01
    257.043  0.1671E-01  0.4693E+01
    258.130  0.1381E-01  0.4710E+01
    259.216  0.1773E-01  0.4729E+01
    260.302  0.1577E-04  0.4745E+01
    261.389  0.1296E-01  0.4769E+01
    262.475  0.1539E-01  0.4795E+01
    263.562  0.3350E-01  0.4834E+01
    264.648  0.2301E-01  0.4872E+01
    265.735  0.1369E-01  0.4887E+01
    266.821  0.2895E-01  0.4923E+01
    267.908  0.8054E-02  0.4943E+01
    268.994  0.2531E-01  0.4970E+01
    270.081  0.1878E-01  0.4990E+01
    271.167  0.2982E-01  0.5047E+01
    272.254  0.1841E-01  0.5067E+01
    273.340  0.6903E-02  0.5075E+01
    274.427  0.1381E-01  0.5090E+01
    275.513  0.0000E+00  0.5090E+01
    276.600  0.1211E-04  0.5090E+01
    277.686  0.4602E-02  0.5100E+01
    278.773  0.4602E-02  0.5105E+01
    279.859  0.0000E+00  0.5105E+01
    280.946  0.6816E-02  0.5112E+01
    282.032  0.0000E+00  0.5112E+01
    283.119  0.0000E+00  0.5112E+01
    284.205  0.1078E-09  0.5113E+01
    285.292  0.6903E-02  0.5120E+01
    286.378  0.0000E+00  0.5120E+01
    287.465  0.0000E+00  0.5120E+01
    288.551  0.0000E+00  0.5120E+01
    289.638  0.0000E+00  0.5120E+01
    290.724  0.0000E+00  0.5120E+01
    291.810  0.0000E+00  0.5120E+01
    292.897  0.0000E+00  0.5120E+01
    293.983  0.0000E+00  0.5120E+01
    295.070  0.0000E+00  0.5120E+01
    296.156  0.0000E+00  0.5120E+01
    297.243  0.0000E+00  0.5120E+01
    298.329  0.0000E+00  0.5120E+01
    299.416  0.0000E+00  0.5120E+01
