    2    2   50    1
  0.5696752E+01  0.2525752E-09  0.2525752E-09  0.2525752E-09  0.1000000E-15
  1.000000000000000E-004
  CAR 
 unknown system                          
      8      8    128
 
  0.0000000E+00  0.0000000E+00  0.0000000E+00  0.3125000E-01
    1      -11.713297   1.000000
    2        9.536416   1.000000
    3        9.536416   1.000000
    4        9.536417   1.000000
    5       15.050278   0.000000
    6       15.050278   0.000000
    7       15.050279   0.000000
    8       22.420135   0.000000
    9       28.538573   0.000000
   10       35.791255   0.000000
   11       35.791255   0.000000
   12       36.775443   0.000000
   13       36.775443   0.000000
   14       36.775443   0.000000
   15       43.920780   0.000000
   16       56.053199   0.000000
   17       56.053199   0.000000
   18       56.053200   0.000000
   19       76.112452   0.000000
   20       76.112452   0.000000
   21       76.112452   0.000000
   22       80.474676   0.000000
   23       80.474676   0.000000
   24       82.956626   0.000000
   25       82.956626   0.000000
   26       82.956626   0.000000
   27       87.552604   0.000000
   28       87.552604   0.000000
   29       87.552605   0.000000
   30       95.322557   0.000000
   31      107.592375   0.000000
   32      107.592375   0.000000
   33      107.592375   0.000000
   34      112.942550   0.000000
   35      112.942550   0.000000
   36      112.942550   0.000000
   37      113.545977   0.000000
   38      113.545977   0.000000
   39      113.620416   0.000000
   40      113.620416   0.000000
   41      117.472343   0.000000
   42      117.472344   0.000000
   43      117.472344   0.000000
   44      118.425863   0.000000
   45      118.425863   0.000000
   46      118.425863   0.000000
   47      119.689294   0.000000
   48      119.689294   0.000000
   49      119.689294   0.000000
   50      120.899727   0.000000
   51      127.229648   0.000000
   52      129.026409   0.000000
   53      129.026409   0.000000
   54      129.026409   0.000000
   55      129.785604   0.000000
   56      129.785605   0.000000
   57      129.785605   0.000000
   58      136.594550   0.000000
   59      141.314327   0.000000
   60      167.234440   0.000000
   61      167.234441   0.000000
   62      167.234441   0.000000
   63      173.527869   0.000000
   64      173.527869   0.000000
   65      178.277428   0.000000
   66      178.277428   0.000000
   67      178.277429   0.000000
   68      180.602769   0.000000
   69      189.901039   0.000000
   70      189.901039   0.000000
   71      189.901039   0.000000
   72      201.946344   0.000000
   73      201.946345   0.000000
   74      201.946345   0.000000
   75      202.311617   0.000000
   76      202.311617   0.000000
   77      203.391136   0.000000
   78      203.391136   0.000000
   79      203.391136   0.000000
   80      206.563326   0.000000
   81      206.563326   0.000000
   82      206.563326   0.000000
   83      208.779554   0.000000
   84      208.779555   0.000000
   85      208.779555   0.000000
   86      209.673610   0.000000
   87      209.673610   0.000000
   88      214.783669   0.000000
   89      216.833670   0.000000
   90      216.833671   0.000000
   91      216.833671   0.000000
   92      218.272889   0.000000
   93      218.272889   0.000000
   94      222.037291   0.000000
   95      222.037291   0.000000
   96      222.037291   0.000000
   97      222.854816   0.000000
   98      222.854818   0.000000
   99      222.854818   0.000000
  100      223.397969   0.000000
  101      223.507042   0.000000
  102      223.507043   0.000000
  103      223.507043   0.000000
  104      224.564558   0.000000
  105      224.564559   0.000000
  106      224.564559   0.000000
  107      225.841805   0.000000
  108      226.352482   0.000000
  109      226.352484   0.000000
  110      226.352484   0.000000
  111      226.502406   0.000000
  112      226.502406   0.000000
  113      248.521715   0.000000
  114      248.521716   0.000000
  115      248.521716   0.000000
  116      251.798024   0.000000
  117      261.135484   0.000000
  118      261.135485   0.000000
  119      261.135485   0.000000
  120      262.362906   0.000000
  121      265.659693   0.000000
  122      265.659694   0.000000
  123      265.659697   0.000000
  124      267.034574   0.000000
  125      267.067176   0.000000
  126      267.327566   0.000000
  127      267.347263   0.000000
  128      267.390200   0.000000
 
  0.2500000E+00 -0.4457936E-17  0.3654724E-17  0.1250000E+00
    1      -10.019518   1.000000
    2        3.018072   1.000000
    3        7.818307   1.000000
    4        7.818307   1.000000
    5       17.215600   0.000000
    6       17.215600   0.000000
    7       17.484166   0.000000
    8       23.848022   0.000000
    9       29.956703   0.000000
   10       31.706012   0.000000
   11       31.706012   0.000000
   12       34.669533   0.000000
   13       48.045979   0.000000
   14       48.045979   0.000000
   15       51.579249   0.000000
   16       51.579250   0.000000
   17       52.485559   0.000000
   18       53.532543   0.000000
   19       67.883335   0.000000
   20       67.883335   0.000000
   21       77.448652   0.000000
   22       78.397447   0.000000
   23       78.397447   0.000000
   24       83.510376   0.000000
   25       83.510376   0.000000
   26       84.887389   0.000000
   27       85.737777   0.000000
   28       90.159155   0.000000
   29       91.261185   0.000000
   30       91.261185   0.000000
   31       99.846786   0.000000
   32      100.690968   0.000000
   33      100.690968   0.000000
   34      103.563588   0.000000
   35      103.563588   0.000000
   36      104.115789   0.000000
   37      106.757508   0.000000
   38      106.757509   0.000000
   39      109.066853   0.000000
   40      114.939368   0.000000
   41      114.939369   0.000000
   42      115.766465   0.000000
   43      117.590047   0.000000
   44      124.391622   0.000000
   45      124.391622   0.000000
   46      126.663788   0.000000
   47      126.663788   0.000000
   48      127.577893   0.000000
   49      134.193598   0.000000
   50      134.562459   0.000000
   51      134.562459   0.000000
   52      136.323533   0.000000
   53      138.617237   0.000000
   54      143.488218   0.000000
   55      143.488218   0.000000
   56      144.152107   0.000000
   57      147.833373   0.000000
   58      147.833373   0.000000
   59      150.592294   0.000000
   60      150.592294   0.000000
   61      157.339584   0.000000
   62      163.156646   0.000000
   63      163.156646   0.000000
   64      164.227385   0.000000
   65      166.092683   0.000000
   66      171.133287   0.000000
   67      171.133288   0.000000
   68      179.797927   0.000000
   69      182.997092   0.000000
   70      182.997093   0.000000
   71      189.656723   0.000000
   72      189.794232   0.000000
   73      189.794232   0.000000
   74      190.599517   0.000000
   75      190.709987   0.000000
   76      190.709988   0.000000
   77      194.296655   0.000000
   78      194.296655   0.000000
   79      199.233214   0.000000
   80      199.795331   0.000000
   81      199.795331   0.000000
   82      200.656560   0.000000
   83      203.267515   0.000000
   84      203.267516   0.000000
   85      207.807440   0.000000
   86      210.730271   0.000000
   87      211.313576   0.000000
   88      211.313578   0.000000
   89      211.577512   0.000000
   90      213.966523   0.000000
   91      215.591796   0.000000
   92      215.591797   0.000000
   93      219.499289   0.000000
   94      219.499289   0.000000
   95      219.990216   0.000000
   96      222.837982   0.000000
   97      222.837982   0.000000
   98      224.188808   0.000000
   99      230.520055   0.000000
  100      230.520056   0.000000
  101      233.217454   0.000000
  102      234.686475   0.000000
  103      234.686475   0.000000
  104      236.325073   0.000000
  105      236.680968   0.000000
  106      236.680968   0.000000
  107      237.422052   0.000000
  108      238.187597   0.000000
  109      238.187597   0.000000
  110      243.441496   0.000000
  111      246.104391   0.000000
  112      246.104392   0.000000
  113      246.320111   0.000000
  114      247.300296   0.000000
  115      247.300296   0.000000
  116      253.366581   0.000000
  117      255.906865   0.000000
  118      257.450997   0.000000
  119      257.450997   0.000000
  120      259.151720   0.000000
  121      261.297549   0.000000
  122      261.487459   0.000000
  123      261.487460   0.000000
  124      262.812965   0.000000
  125      262.812965   0.000000
  126      264.203111   0.000000
  127      264.203112   0.000000
  128      264.289885   0.000000
 
  0.5000000E+00 -0.8915872E-17  0.7309449E-17  0.1250000E+00
    1       -6.038254   1.000000
    2       -3.654394   1.000000
    3        6.779512   1.000000
    4        6.779512   1.000000
    5       17.886885   0.000000
    6       17.886885   0.000000
    7       18.104379   0.000000
    8       25.028426   0.000000
    9       31.138393   0.000000
   10       33.327625   0.000000
   11       35.159741   0.000000
   12       35.159742   0.000000
   13       43.150289   0.000000
   14       43.150289   0.000000
   15       54.946256   0.000000
   16       62.094731   0.000000
   17       62.094732   0.000000
   18       64.715230   0.000000
   19       65.928688   0.000000
   20       65.928688   0.000000
   21       68.415735   0.000000
   22       68.415735   0.000000
   23       72.043202   0.000000
   24       73.767239   0.000000
   25       81.918933   0.000000
   26       81.918933   0.000000
   27       84.665247   0.000000
   28       84.665247   0.000000
   29       88.455147   0.000000
   30       91.902638   0.000000
   31       93.678686   0.000000
   32       93.678686   0.000000
   33       95.493768   0.000000
   34       96.211041   0.000000
   35      104.945051   0.000000
   36      104.945051   0.000000
   37      110.756893   0.000000
   38      112.313043   0.000000
   39      112.313044   0.000000
   40      113.732826   0.000000
   41      120.060310   0.000000
   42      121.997710   0.000000
   43      129.968145   0.000000
   44      129.968145   0.000000
   45      132.246431   0.000000
   46      132.246431   0.000000
   47      134.798630   0.000000
   48      134.798631   0.000000
   49      136.067047   0.000000
   50      136.067047   0.000000
   51      137.778778   0.000000
   52      141.658957   0.000000
   53      143.467644   0.000000
   54      143.467644   0.000000
   55      149.692007   0.000000
   56      150.001672   0.000000
   57      150.001672   0.000000
   58      157.530718   0.000000
   59      157.530719   0.000000
   60      157.978120   0.000000
   61      157.978120   0.000000
   62      162.344785   0.000000
   63      162.766609   0.000000
   64      163.372042   0.000000
   65      164.815956   0.000000
   66      164.815957   0.000000
   67      166.117582   0.000000
   68      166.117582   0.000000
   69      166.393082   0.000000
   70      167.744507   0.000000
   71      175.446952   0.000000
   72      181.191961   0.000000
   73      182.077817   0.000000
   74      182.077818   0.000000
   75      183.290724   0.000000
   76      183.290725   0.000000
   77      186.696785   0.000000
   78      186.696786   0.000000
   79      194.815685   0.000000
   80      194.815685   0.000000
   81      199.211609   0.000000
   82      201.647981   0.000000
   83      201.647982   0.000000
   84      204.529687   0.000000
   85      205.184028   0.000000
   86      210.214771   0.000000
   87      210.342161   0.000000
   88      210.342162   0.000000
   89      211.031317   0.000000
   90      217.441769   0.000000
   91      217.441769   0.000000
   92      219.243828   0.000000
   93      219.734345   0.000000
   94      225.804643   0.000000
   95      225.804645   0.000000
   96      227.328970   0.000000
   97      227.780622   0.000000
   98      227.780623   0.000000
   99      228.358442   0.000000
  100      228.374041   0.000000
  101      228.374041   0.000000
  102      229.933824   0.000000
  103      229.933824   0.000000
  104      231.152098   0.000000
  105      231.359106   0.000000
  106      231.395035   0.000000
  107      231.395036   0.000000
  108      244.951210   0.000000
  109      246.449857   0.000000
  110      246.449858   0.000000
  111      248.486876   0.000000
  112      251.052857   0.000000
  113      251.052858   0.000000
  114      254.853119   0.000000
  115      254.853119   0.000000
  116      255.065786   0.000000
  117      255.276632   0.000000
  118      255.313246   0.000000
  119      255.313248   0.000000
  120      260.584629   0.000000
  121      264.376540   0.000000
  122      264.376541   0.000000
  123      265.442334   0.000000
  124      266.449781   0.000000
  125      269.599958   0.000000
  126      270.350569   0.000000
  127      270.351289   0.000000
  128      271.023805   0.000000
 
  0.2500000E+00  0.2500000E+00 -0.4819271E-17  0.6250000E-01
    1       -9.456878   1.000000
    2        5.035777   1.000000
    3        5.481378   1.000000
    4        5.481378   1.000000
    5       13.899102   0.000000
    6       19.606627   0.000000
    7       20.943726   0.000000
    8       20.943727   0.000000
    9       29.287868   0.000000
   10       31.428893   0.000000
   11       38.677351   0.000000
   12       41.795851   0.000000
   13       41.795851   0.000000
   14       44.763188   0.000000
   15       49.897841   0.000000
   16       49.897841   0.000000
   17       54.670731   0.000000
   18       59.599565   0.000000
   19       61.690542   0.000000
   20       73.054679   0.000000
   21       73.054679   0.000000
   22       77.287095   0.000000
   23       77.287095   0.000000
   24       77.609630   0.000000
   25       79.947511   0.000000
   26       81.433107   0.000000
   27       87.860134   0.000000
   28       91.698534   0.000000
   29       91.698534   0.000000
   30       99.025572   0.000000
   31      100.444171   0.000000
   32      100.444171   0.000000
   33      102.161312   0.000000
   34      103.053824   0.000000
   35      104.877586   0.000000
   36      106.979168   0.000000
   37      107.398817   0.000000
   38      107.398817   0.000000
   39      109.706713   0.000000
   40      112.200643   0.000000
   41      112.200643   0.000000
   42      113.345279   0.000000
   43      118.611282   0.000000
   44      120.429217   0.000000
   45      120.429217   0.000000
   46      127.085288   0.000000
   47      130.627170   0.000000
   48      130.627171   0.000000
   49      130.793905   0.000000
   50      130.895074   0.000000
   51      132.010780   0.000000
   52      135.409727   0.000000
   53      140.052984   0.000000
   54      147.645036   0.000000
   55      148.371937   0.000000
   56      148.371937   0.000000
   57      154.312171   0.000000
   58      157.421236   0.000000
   59      157.421236   0.000000
   60      158.232185   0.000000
   61      158.404092   0.000000
   62      158.404092   0.000000
   63      167.878067   0.000000
   64      167.878068   0.000000
   65      169.794172   0.000000
   66      172.994480   0.000000
   67      173.415011   0.000000
   68      175.439269   0.000000
   69      177.066870   0.000000
   70      177.066871   0.000000
   71      178.433977   0.000000
   72      180.078945   0.000000
   73      181.700941   0.000000
   74      181.700942   0.000000
   75      184.802977   0.000000
   76      186.594985   0.000000
   77      189.850168   0.000000
   78      189.850169   0.000000
   79      197.588974   0.000000
   80      197.690220   0.000000
   81      197.690220   0.000000
   82      199.251840   0.000000
   83      200.841099   0.000000
   84      203.095128   0.000000
   85      206.210759   0.000000
   86      206.210759   0.000000
   87      209.646384   0.000000
   88      218.398347   0.000000
   89      219.614011   0.000000
   90      219.614011   0.000000
   91      221.864176   0.000000
   92      223.089272   0.000000
   93      223.089273   0.000000
   94      223.349639   0.000000
   95      224.061422   0.000000
   96      224.847461   0.000000
   97      226.539709   0.000000
   98      228.255623   0.000000
   99      228.268626   0.000000
  100      228.268626   0.000000
  101      232.416326   0.000000
  102      234.193491   0.000000
  103      234.193491   0.000000
  104      235.812176   0.000000
  105      237.496958   0.000000
  106      237.862046   0.000000
  107      237.862046   0.000000
  108      238.803574   0.000000
  109      243.887376   0.000000
  110      243.971328   0.000000
  111      244.009038   0.000000
  112      244.009038   0.000000
  113      246.588000   0.000000
  114      247.068094   0.000000
  115      247.068095   0.000000
  116      247.384598   0.000000
  117      248.106709   0.000000
  118      249.350984   0.000000
  119      249.350984   0.000000
  120      251.092299   0.000000
  121      252.854677   0.000000
  122      252.854678   0.000000
  123      254.156387   0.000000
  124      255.827983   0.000000
  125      262.530343   0.000000
  126      265.255679   0.000000
  127      269.497717   0.000000
  128      269.497718   0.000000
 
  0.5000000E+00  0.2500000E+00  0.2048300E-17  0.3750000E+00
    1       -5.774319   1.000000
    2       -1.133113   1.000000
    3        2.879415   1.000000
    4        4.737536   1.000000
    5       15.515480   0.000000
    6       20.790043   0.000000
    7       22.149751   0.000000
    8       22.602654   0.000000
    9       29.566623   0.000000
   10       32.768534   0.000000
   11       36.750338   0.000000
   12       40.162016   0.000000
   13       45.166592   0.000000
   14       50.510014   0.000000
   15       53.157478   0.000000
   16       54.898125   0.000000
   17       59.743384   0.000000
   18       59.835310   0.000000
   19       61.204660   0.000000
   20       66.555168   0.000000
   21       68.357572   0.000000
   22       70.281043   0.000000
   23       72.106415   0.000000
   24       75.362213   0.000000
   25       77.584039   0.000000
   26       81.342121   0.000000
   27       83.368587   0.000000
   28       86.133361   0.000000
   29       88.183916   0.000000
   30       89.270874   0.000000
   31       95.069019   0.000000
   32       97.287935   0.000000
   33       99.987794   0.000000
   34      100.341853   0.000000
   35      104.265255   0.000000
   36      107.426554   0.000000
   37      108.772101   0.000000
   38      116.094631   0.000000
   39      116.449926   0.000000
   40      116.726110   0.000000
   41      118.191685   0.000000
   42      120.099617   0.000000
   43      123.851918   0.000000
   44      123.938316   0.000000
   45      127.517014   0.000000
   46      128.993760   0.000000
   47      131.424928   0.000000
   48      133.808352   0.000000
   49      134.954310   0.000000
   50      135.300380   0.000000
   51      142.001180   0.000000
   52      142.158651   0.000000
   53      146.421740   0.000000
   54      148.878523   0.000000
   55      151.645379   0.000000
   56      153.583420   0.000000
   57      153.795442   0.000000
   58      155.315108   0.000000
   59      157.319594   0.000000
   60      158.445705   0.000000
   61      160.661198   0.000000
   62      162.621438   0.000000
   63      163.039285   0.000000
   64      164.144855   0.000000
   65      164.618014   0.000000
   66      167.404481   0.000000
   67      167.503513   0.000000
   68      169.825628   0.000000
   69      174.259143   0.000000
   70      174.962420   0.000000
   71      175.482457   0.000000
   72      177.961306   0.000000
   73      179.908235   0.000000
   74      181.267553   0.000000
   75      182.775479   0.000000
   76      186.881279   0.000000
   77      187.855229   0.000000
   78      189.758937   0.000000
   79      190.198575   0.000000
   80      193.873862   0.000000
   81      194.849351   0.000000
   82      198.295308   0.000000
   83      198.532557   0.000000
   84      200.243541   0.000000
   85      202.391079   0.000000
   86      202.938497   0.000000
   87      204.003648   0.000000
   88      205.908690   0.000000
   89      209.384083   0.000000
   90      210.006195   0.000000
   91      211.264232   0.000000
   92      214.814782   0.000000
   93      216.598117   0.000000
   94      218.666710   0.000000
   95      220.903725   0.000000
   96      223.087342   0.000000
   97      223.156631   0.000000
   98      224.363480   0.000000
   99      225.612927   0.000000
  100      227.520916   0.000000
  101      229.229107   0.000000
  102      230.564984   0.000000
  103      232.562908   0.000000
  104      233.418605   0.000000
  105      234.917855   0.000000
  106      239.615488   0.000000
  107      241.459437   0.000000
  108      243.170895   0.000000
  109      245.188856   0.000000
  110      245.970019   0.000000
  111      248.474242   0.000000
  112      249.189929   0.000000
  113      251.518010   0.000000
  114      253.436124   0.000000
  115      255.790014   0.000000
  116      256.182016   0.000000
  117      256.711498   0.000000
  118      258.954570   0.000000
  119      259.377384   0.000000
  120      263.424424   0.000000
  121      263.645318   0.000000
  122      266.737227   0.000000
  123      266.812940   0.000000
  124      268.268018   0.000000
  125      270.217026   0.000000
  126      270.562020   0.000000
  127      271.846686   0.000000
  128      273.700438   0.000000
 
 -0.2500000E+00  0.2500000E+00 -0.8915872E-17  0.1250000E+00
    1       -7.304566   1.000000
    2        0.915116   1.000000
    3        2.038576   1.000000
    4        6.572172   1.000000
    5       17.333392   0.000000
    6       19.394396   0.000000
    7       21.678850   0.000000
    8       23.154301   0.000000
    9       28.939812   0.000000
   10       30.089428   0.000000
   11       33.910228   0.000000
   12       42.406198   0.000000
   13       44.924972   0.000000
   14       50.464074   0.000000
   15       51.236656   0.000000
   16       51.460908   0.000000
   17       59.871099   0.000000
   18       63.647059   0.000000
   19       64.040698   0.000000
   20       64.723312   0.000000
   21       69.208171   0.000000
   22       72.714835   0.000000
   23       75.010578   0.000000
   24       75.621866   0.000000
   25       77.184826   0.000000
   26       80.061666   0.000000
   27       86.196857   0.000000
   28       87.722263   0.000000
   29       88.331161   0.000000
   30       91.911093   0.000000
   31       96.856967   0.000000
   32       97.551660   0.000000
   33       98.726112   0.000000
   34      100.798240   0.000000
   35      101.817872   0.000000
   36      105.887854   0.000000
   37      108.483096   0.000000
   38      109.953665   0.000000
   39      110.644869   0.000000
   40      116.748712   0.000000
   41      120.740595   0.000000
   42      120.961204   0.000000
   43      123.970807   0.000000
   44      126.199434   0.000000
   45      128.809126   0.000000
   46      130.178294   0.000000
   47      131.129260   0.000000
   48      133.836409   0.000000
   49      136.960747   0.000000
   50      137.010755   0.000000
   51      139.983911   0.000000
   52      142.491356   0.000000
   53      143.515985   0.000000
   54      144.598849   0.000000
   55      145.980831   0.000000
   56      147.513321   0.000000
   57      151.380851   0.000000
   58      153.016993   0.000000
   59      155.763573   0.000000
   60      156.683065   0.000000
   61      158.067520   0.000000
   62      163.616715   0.000000
   63      164.468328   0.000000
   64      164.621868   0.000000
   65      164.806481   0.000000
   66      167.938857   0.000000
   67      168.956524   0.000000
   68      173.605153   0.000000
   69      175.441033   0.000000
   70      176.120390   0.000000
   71      176.884573   0.000000
   72      181.023848   0.000000
   73      181.313159   0.000000
   74      182.766210   0.000000
   75      185.617150   0.000000
   76      186.943080   0.000000
   77      189.670444   0.000000
   78      190.698971   0.000000
   79      191.855459   0.000000
   80      193.423826   0.000000
   81      195.544795   0.000000
   82      197.420219   0.000000
   83      199.527020   0.000000
   84      201.353398   0.000000
   85      202.474761   0.000000
   86      204.525036   0.000000
   87      204.531576   0.000000
   88      206.316810   0.000000
   89      207.932675   0.000000
   90      209.456551   0.000000
   91      215.283564   0.000000
   92      217.057695   0.000000
   93      217.190533   0.000000
   94      221.052086   0.000000
   95      222.848782   0.000000
   96      224.969640   0.000000
   97      227.633493   0.000000
   98      228.543319   0.000000
   99      229.163800   0.000000
  100      231.107363   0.000000
  101      231.772327   0.000000
  102      235.931122   0.000000
  103      235.995725   0.000000
  104      237.072411   0.000000
  105      237.164288   0.000000
  106      238.689204   0.000000
  107      239.705682   0.000000
  108      242.449356   0.000000
  109      244.985003   0.000000
  110      246.173312   0.000000
  111      246.192714   0.000000
  112      248.309805   0.000000
  113      249.105630   0.000000
  114      250.173716   0.000000
  115      250.416055   0.000000
  116      253.108812   0.000000
  117      255.391766   0.000000
  118      257.019222   0.000000
  119      260.493893   0.000000
  120      260.805422   0.000000
  121      261.701172   0.000000
  122      262.262122   0.000000
  123      262.948420   0.000000
  124      263.027597   0.000000
  125      266.172204   0.000000
  126      267.314509   0.000000
  127      268.695232   0.000000
  128      269.642250   0.000000
 
  0.5000000E+00  0.5000000E+00 -0.9638543E-17  0.9375000E-01
    1       -3.112612   1.000000
    2       -3.112612   1.000000
    3        3.338062   1.000000
    4        3.338062   1.000000
    5       14.209550   0.000000
    6       14.209550   0.000000
    7       26.059852   0.000000
    8       26.059853   0.000000
    9       32.409530   0.000000
   10       32.409530   0.000000
   11       41.527724   0.000000
   12       41.527724   0.000000
   13       47.325226   0.000000
   14       47.325226   0.000000
   15       57.395583   0.000000
   16       57.395583   0.000000
   17       57.815055   0.000000
   18       57.815055   0.000000
   19       58.814273   0.000000
   20       58.814273   0.000000
   21       61.752032   0.000000
   22       61.752032   0.000000
   23       77.609679   0.000000
   24       77.609679   0.000000
   25       80.504100   0.000000
   26       80.504100   0.000000
   27       85.373256   0.000000
   28       85.373256   0.000000
   29       91.412192   0.000000
   30       91.412192   0.000000
   31      100.088805   0.000000
   32      100.088805   0.000000
   33      103.511727   0.000000
   34      103.511728   0.000000
   35      104.103693   0.000000
   36      104.103693   0.000000
   37      105.901957   0.000000
   38      105.901957   0.000000
   39      108.104225   0.000000
   40      108.104225   0.000000
   41      120.721797   0.000000
   42      120.721797   0.000000
   43      124.937624   0.000000
   44      124.937625   0.000000
   45      130.754185   0.000000
   46      130.754186   0.000000
   47      137.736366   0.000000
   48      137.736367   0.000000
   49      141.782980   0.000000
   50      141.782980   0.000000
   51      143.873310   0.000000
   52      143.873310   0.000000
   53      148.714429   0.000000
   54      148.714429   0.000000
   55      150.892155   0.000000
   56      150.892155   0.000000
   57      151.787309   0.000000
   58      151.787310   0.000000
   59      153.255292   0.000000
   60      153.255292   0.000000
   61      153.859835   0.000000
   62      153.859835   0.000000
   63      160.821942   0.000000
   64      160.821942   0.000000
   65      175.926169   0.000000
   66      175.926170   0.000000
   67      177.571310   0.000000
   68      177.571311   0.000000
   69      180.326742   0.000000
   70      180.326743   0.000000
   71      182.340832   0.000000
   72      182.340832   0.000000
   73      183.875615   0.000000
   74      183.875615   0.000000
   75      185.398982   0.000000
   76      185.398982   0.000000
   77      185.710852   0.000000
   78      185.710853   0.000000
   79      190.721351   0.000000
   80      190.721351   0.000000
   81      191.894798   0.000000
   82      191.894799   0.000000
   83      193.322062   0.000000
   84      193.322063   0.000000
   85      196.990916   0.000000
   86      196.990916   0.000000
   87      200.220368   0.000000
   88      200.220368   0.000000
   89      200.404627   0.000000
   90      200.404627   0.000000
   91      205.811442   0.000000
   92      205.811444   0.000000
   93      212.986196   0.000000
   94      212.986198   0.000000
   95      226.220082   0.000000
   96      226.220083   0.000000
   97      227.583024   0.000000
   98      227.583024   0.000000
   99      231.875875   0.000000
  100      231.875875   0.000000
  101      232.206476   0.000000
  102      232.206476   0.000000
  103      232.894884   0.000000
  104      232.894885   0.000000
  105      233.750220   0.000000
  106      233.750221   0.000000
  107      236.359952   0.000000
  108      236.359952   0.000000
  109      244.515931   0.000000
  110      244.515931   0.000000
  111      245.331027   0.000000
  112      245.331027   0.000000
  113      245.384431   0.000000
  114      245.384432   0.000000
  115      251.115511   0.000000
  116      251.115511   0.000000
  117      265.725109   0.000000
  118      265.725110   0.000000
  119      268.630224   0.000000
  120      268.630225   0.000000
  121      270.631854   0.000000