       N       E                     dE             d eps       ncg     rms          rms(c)
DAV:   1     0.240982095945E+02    0.24098E+02   -0.26183E+03  2056   0.629E+01
DAV:   2    -0.176316861652E+02   -0.41730E+02   -0.38757E+02  2264   0.251E+01
DAV:   3    -0.182615701206E+02   -0.62988E+00   -0.62710E+00  2312   0.327E+00
DAV:   4    -0.182616427363E+02   -0.72616E-04   -0.72612E-04  2288   0.318E-02
DAV:   5    -0.182616427366E+02   -0.24028E-09   -0.36798E-09  1928   0.703E-05    0.573E+00
DAV:   6    -0.177349673802E+02    0.52668E+00   -0.68783E-02  2376   0.316E-01    0.347E+00
DAV:   7    -0.175554937969E+02    0.17947E+00   -0.77750E-02  2272   0.342E-01    0.790E-01
DAV:   8    -0.175571186043E+02   -0.16248E-02   -0.34350E-04  2248   0.338E-02    0.554E-02
DAV:   9    -0.175571717703E+02   -0.53166E-04   -0.38896E-05  2376   0.727E-03    0.349E-02
DAV:  10    -0.175571891963E+02   -0.17426E-04   -0.11819E-06  2240   0.307E-03    0.127E-03
DAV:  11    -0.175571892633E+02   -0.66918E-07   -0.86259E-09  1768   0.216E-04
   1 F= -.17557182E+02 E0= -.17557182E+02  d E =-.175572E+02
       N       E                     dE             d eps       ncg     rms          rms(c)
DAV:   1    -0.175596938813E+02   -0.25047E-02   -0.22037E-03  2168   0.747E-02    0.104E-01
DAV:   2    -0.175595550058E+02    0.13888E-03   -0.20586E-05  2280   0.526E-03    0.530E-02
DAV:   3    -0.175594965529E+02    0.58453E-04   -0.21852E-05  2216   0.516E-03    0.951E-03
DAV:   4    -0.175594956695E+02    0.88338E-06   -0.39521E-08  1960   0.357E-04
   2 F= -.17559489E+02 E0= -.17559489E+02  d E =-.230636E-02
       N       E                     dE             d eps       ncg     rms          rms(c)
DAV:   1    -0.175608489480E+02   -0.13524E-02   -0.39191E-03  2168   0.993E-02    0.139E-01
DAV:   2    -0.175606013151E+02    0.24763E-03   -0.36284E-05  2280   0.700E-03    0.705E-02
DAV:   3    -0.175604980302E+02    0.10328E-03   -0.38725E-05  2208   0.690E-03    0.126E-02
DAV:   4    -0.175604967142E+02    0.13160E-05   -0.71975E-08  2080   0.480E-04    0.408E-04
DAV:   5    -0.175604967022E+02    0.11954E-07   -0.18412E-09  1272   0.552E-05
   3 F= -.17560489E+02 E0= -.17560489E+02  d E =-.330733E-02
