 vasp.6.1.0 28Jan20 (build May 01 2020 08:08:17) complex                        
  
 executed on             LinuxIFC date 2023.10.11  20:38:49
 running on    2 total cores
 distrk:  each k-point on    2 cores,    1 groups
 distr:  one band on NCORE=   1 cores,    2 groups


--------------------------------------------------------------------------------------------------------


 INCAR:
 POTCAR:    PAW_PBE C 08Apr2002                   
 -----------------------------------------------------------------------------
|                                                                             |
|           W    W    AA    RRRRR   N    N  II  N    N   GGGG   !!!           |
|           W    W   A  A   R    R  NN   N  II  NN   N  G    G  !!!           |
|           W    W  A    A  R    R  N N  N  II  N N  N  G       !!!           |
|           W WW W  AAAAAA  RRRRR   N  N N  II  N  N N  G  GGG   !            |
|           WW  WW  A    A  R   R   N   NN  II  N   NN  G    G                |
|           W    W  A    A  R    R  N    N  II  N    N   GGGG   !!!           |
|                                                                             |
|     The value NPAR = 4 specified in the INCAR file was overwritten,         |
|     because it was not compatible with the 2 processes available:           |
|     NPAR = 2                                                                |
|     was used instead, please check that this makes sense for your           |
|     machine.                                                                |
|                                                                             |
 -----------------------------------------------------------------------------

 POTCAR:    PAW_PBE C 08Apr2002                   
   SHA256 =  253f7b50bb8d59471dbedb8285d89021f4a42ed1a2c5d38a03a736e69125dd95 C/POTCAR              
   COPYR  = (c) Copyright 08Apr2002 Georg Kresse                                                    
   COPYR  = This file is part of the software VASP. Any use, copying, and all other rights are regul
   COPYR  = If you do not have a valid VASP license, you may not use, copy or distribute this file. 
   VRHFIN =C: s2p2                                                                                  
   LEXCH  = PE                                                                                      
   EATOM  =   147.1560 eV,   10.8157 Ry                                                             
                                                                                                    
   TITEL  = PAW_PBE C 08Apr2002                                                                     
   LULTRA =        F    use ultrasoft PP ?                                                          
   IUNSCR =        1    unscreen: 0-lin 1-nonlin 2-no                                               
   RPACOR =    1.200    partial core radius                                                         
   POMASS =   12.011; ZVAL   =    4.000    mass and valenz                                          
   RCORE  =    1.500    outmost cutoff radius                                                       
   RWIGS  =    1.630; RWIGS  =    0.863    wigner-seitz radius (au A)                               
   ENMAX  =  400.000; ENMIN  =  300.000 eV                                                          
   ICORE  =        2    local potential                                                             
   LCOR   =        T    correct aug charges                                                         
   LPAW   =        T    paw PP                                                                      
   EAUG   =  644.873                                                                                
   DEXC   =    0.000                                                                                
   RMAX   =    1.529    core radius for proj-oper                                                   
   RAUG   =    1.300    factor for augmentation sphere                                              
   RDEP   =    1.501    radius for radial grids                                                     
   RDEPT  =    1.300    core radius for aug-charge                                                  
                                                                                                    
   Atomic configuration                                                                             
    4 entries                                                                                       
     n  l   j            E        occ.                                                              
     1  0  0.50      -273.3789   2.0000                                                             
     2  0  0.50       -13.7508   2.0000                                                             
     2  1  0.50        -5.2854   2.0000                                                             
     3  2  1.50        -5.4423   0.0000                                                             
   Description                                                                                      
     l       E           TYP  RCUT    TYP  RCUT                                                     
     0    -13.7508458     23  1.200                                                                 
     0     -8.2022199     23  1.200                                                                 
     1     -5.2854383     23  1.500                                                                 
     1     34.0145650     23  1.500                                                                 
     2     -5.4423304      7  1.500                                                                 
  local pseudopotential read in
  partial core-charges read in
  partial kinetic energy density read in
  atomic valenz-charges read in
  non local Contribution for L=           0  read in
    real space projection operators read in
  non local Contribution for L=           0  read in
    real space projection operators read in
  non local Contribution for L=           1  read in
    real space projection operators read in
  non local Contribution for L=           1  read in
    real space projection operators read in
    PAW grid and wavefunctions read in
 
   number of l-projection  operators is LMAX  =           4
   number of lm-projection operators is LMMAX =           8
 
  PAW_PBE C 08Apr2002                   :
 energy of atom  1       EATOM= -147.1560
 kinetic energy error for atom=    0.0071 (will be added to EATOM!!)
 
 
 POSCAR:  C
  positions in direct lattice
  No initial velocities read in
 exchange correlation table for  LEXCH =        8
   RHO(1)=    0.500       N(1)  =     2000
   RHO(2)=  100.500       N(2)  =     4000
 


--------------------------------------------------------------------------------------------------------


 ion  position               nearest neighbor table
   1  0.250  0.250  0.250-   2 1.55   2 1.55   2 1.55   2 1.55
   2  0.000  0.000  0.000-   1 1.55   1 1.55   1 1.55   1 1.55
 
  LATTYP: Found a face centered cubic cell.
 ALAT       =     3.5719533033
  
  Lattice vectors:
  
 A1 = (   0.0000000000,   1.7859766517,   1.7859766517)
 A2 = (   1.7859766517,   0.0000000000,   1.7859766517)
 A3 = (   1.7859766517,   1.7859766517,   0.0000000000)


Analysis of symmetry for initial positions (statically):
=====================================================================
 Subroutine PRICEL returns:
 Original cell was already a primitive cell.
 

 Routine SETGRP: Setting up the symmetry group for a 
 face centered cubic supercell.


 Subroutine GETGRP returns: Found 48 space group operations
 (whereof 24 operations were pure point group operations)
 out of a pool of 48 trial point group operations.


The static configuration has the point symmetry T_d .
 The point group associated with its full space group is O_h .


Analysis of symmetry for dynamics (positions and initial velocities):
=====================================================================
 Subroutine PRICEL returns:
 Original cell was already a primitive cell.
 

 Routine SETGRP: Setting up the symmetry group for a 
 face centered cubic supercell.


 Subroutine GETGRP returns: Found 48 space group operations
 (whereof 24 operations were pure point group operations)
 out of a pool of 48 trial point group operations.


The dynamic configuration has the point symmetry T_d .
 The point group associated with its full space group is O_h .


 Subroutine INISYM returns: Found 48 space group operations
 (whereof 24 operations are pure point group operations),
 and found     1 'primitive' translations


----------------------------------------------------------------------------------------

                                     Primitive cell                                     

  volume of cell :      11.3935

  direct lattice vectors                    reciprocal lattice vectors
     0.000000000  1.785976652  1.785976652    -0.279958867  0.279958867  0.279958867
     1.785976652  0.000000000  1.785976652     0.279958867 -0.279958867  0.279958867
     1.785976652  1.785976652  0.000000000     0.279958867  0.279958867 -0.279958867

  length of vectors
     2.525752403  2.525752403  2.525752403     0.484902982  0.484902982  0.484902982

  position of ions in fractional coordinates (direct lattice)
     0.250000000  0.250000000  0.250000000
     0.000000000  0.000000000  0.000000000

  ion indices of the primitive-cell ions
   primitive index   ion index
                 1           1
                 2           2

----------------------------------------------------------------------------------------

 
 
 KPOINTS: A                                       

Automatic generation of k-mesh.
Space group operators:
 irot       det(A)        alpha          n_x          n_y          n_z        tau_x        tau_y        tau_z
    1     1.000000     0.000000     1.000000     0.000000     0.000000     0.000000     0.000000     0.000000
    2     1.000000   120.000000    -0.577350    -0.577350    -0.577350     0.000000     0.000000     0.000000
    3     1.000000   120.000000     0.577350     0.577350     0.577350     0.000000     0.000000     0.000000
    4    -1.000000    90.000000     0.000000     0.000000    -1.000000     0.000000     0.000000     0.000000
    5    -1.000000   180.000000     0.000000     0.707107     0.707107     0.000000     0.000000     0.000000
    6    -1.000000    90.000000     0.000000     1.000000     0.000000     0.000000     0.000000     0.000000
    7     1.000000   180.000000    -0.000000     0.000000    -1.000000     0.000000     0.000000     0.000000
    8     1.000000   120.000000    -0.577350     0.577350     0.577350     0.000000     0.000000     0.000000
    9     1.000000   120.000000    -0.577350     0.577350    -0.577350     0.000000     0.000000     0.000000
   10    -1.000000    90.000000     0.000000     0.000000     1.000000     0.000000     0.000000     0.000000
   11    -1.000000    90.000000    -1.000000    -0.000000     0.000000     0.000000     0.000000     0.000000
   12    -1.000000   180.000000     0.707107     0.000000     0.707107     0.000000     0.000000     0.000000
   13     1.000000   120.000000     0.577350    -0.577350     0.577350     0.000000     0.000000     0.000000
   14     1.000000   120.000000    -0.577350    -0.577350     0.577350     0.000000     0.000000     0.000000
   15     1.000000   180.000000     1.000000     0.000000     0.000000     0.000000     0.000000     0.000000
   16    -1.000000    90.000000     0.000000    -1.000000     0.000000     0.000000     0.000000     0.000000
   17    -1.000000   180.000000     0.707107     0.707107     0.000000     0.000000     0.000000     0.000000
   18    -1.000000    90.000000     1.000000     0.000000    -0.000000     0.000000     0.000000     0.000000
   19     1.000000   120.000000     0.577350    -0.577350    -0.577350     0.000000     0.000000     0.000000
   20     1.000000   180.000000     0.000000    -1.000000    -0.000000     0.000000     0.000000     0.000000
   21     1.000000   120.000000     0.577350     0.577350    -0.577350     0.000000     0.000000     0.000000
   22    -1.000000   180.000000     0.000000    -0.707107     0.707107     0.000000     0.000000     0.000000
   23    -1.000000   180.000000     0.707107    -0.707107    -0.000000     0.000000     0.000000     0.000000
   24    -1.000000   180.000000     0.707107     0.000000    -0.707107     0.000000     0.000000     0.000000
   25    -1.000000     0.000000     1.000000     0.000000     0.000000     0.250000     0.250000     0.250000
   26    -1.000000   120.000000    -0.577350    -0.577350    -0.577350     0.250000     0.250000     0.250000
   27    -1.000000   120.000000     0.577350     0.577350     0.577350     0.250000     0.250000     0.250000
   28     1.000000    90.000000     0.000000     0.000000    -1.000000     0.250000     0.250000     0.250000
   29     1.000000   180.000000     0.000000     0.707107     0.707107     0.250000     0.250000     0.250000
   30     1.000000    90.000000     0.000000     1.000000     0.000000     0.250000     0.250000     0.250000
   31    -1.000000   180.000000    -0.000000     0.000000    -1.000000     0.250000     0.250000     0.250000
   32    -1.000000   120.000000    -0.577350     0.577350     0.577350     0.250000     0.250000     0.250000
   33    -1.000000   120.000000    -0.577350     0.577350    -0.577350     0.250000     0.250000     0.250000
   34     1.000000    90.000000     0.000000     0.000000     1.000000     0.250000     0.250000     0.250000
   35     1.000000    90.000000    -1.000000    -0.000000     0.000000     0.250000     0.250000     0.250000
   36     1.000000   180.000000     0.707107     0.000000     0.707107     0.250000     0.250000     0.250000
   37    -1.000000   120.000000     0.577350    -0.577350     0.577350     0.250000     0.250000     0.250000
   38    -1.000000   120.000000    -0.577350    -0.577350     0.577350     0.250000     0.250000     0.250000
   39    -1.000000   180.000000     1.000000     0.000000     0.000000     0.250000     0.250000     0.250000
   40     1.000000    90.000000     0.000000    -1.000000     0.000000     0.250000     0.250000     0.250000
   41     1.000000   180.000000     0.707107     0.707107     0.000000     0.250000     0.250000     0.250000
   42     1.000000    90.000000     1.000000     0.000000    -0.000000     0.250000     0.250000     0.250000
   43    -1.000000   120.000000     0.577350    -0.577350    -0.577350     0.250000     0.250000     0.250000
   44    -1.000000   180.000000     0.000000    -1.000000    -0.000000     0.250000     0.250000     0.250000
   45    -1.000000   120.000000     0.577350     0.577350    -0.577350     0.250000     0.250000     0.250000
   46     1.000000   180.000000     0.000000    -0.707107     0.707107     0.250000     0.250000     0.250000
   47     1.000000   180.000000     0.707107    -0.707107    -0.000000     0.250000     0.250000     0.250000
   48     1.000000   180.000000     0.707107     0.000000    -0.707107     0.250000     0.250000     0.250000
 
 Subroutine IBZKPT returns following result:
 ===========================================
 
 Found      8 irreducible k-points:
 
 Following reciprocal coordinates:
            Coordinates               Weight
  0.000000  0.000000  0.000000      1.000000
  0.250000 -0.000000  0.000000      4.000000
  0.500000 -0.000000  0.000000      4.000000
  0.250000  0.250000 -0.000000      2.000000
  0.500000  0.250000  0.000000     12.000000
 -0.250000  0.250000 -0.000000      4.000000
  0.500000  0.500000 -0.000000      3.000000
 -0.250000  0.250000  0.500000      2.000000
 
 Following cartesian coordinates:
            Coordinates               Weight
  0.000000  0.000000  0.000000      1.000000
 -0.069990  0.069990  0.069990      4.000000
 -0.139979  0.139979  0.139979      4.000000
 -0.000000 -0.000000  0.139979      2.000000
 -0.069990  0.069990  0.209969     12.000000
  0.139979 -0.139979  0.000000      4.000000
 -0.000000 -0.000000  0.279959      3.000000
  0.279959  0.000000 -0.139979      2.000000
 


--------------------------------------------------------------------------------------------------------




 Dimension of arrays:
   k-points           NKPTS =      8   k-points in BZ     NKDIM =      8   number of bands    NBANDS=    128
   number of dos      NEDOS =    301   number of ions     NIONS =      2
   non local maximal  LDIM  =      4   non local SUM 2l+1 LMDIM =      8
   total plane-waves  NPLWV =   8000
   max r-space proj   IRMAX =      1   max aug-charges    IRDMAX=   8485
   dimension x,y,z NGX =    20 NGY =   20 NGZ =   20
   dimension x,y,z NGXF=    40 NGYF=   40 NGZF=   40
   support grid    NGXF=    40 NGYF=   40 NGZF=   40
   ions per type =               2
   NGX,Y,Z   is equivalent  to a cutoff of  13.16, 13.16, 13.16 a.u.
   NGXF,Y,Z  is equivalent  to a cutoff of  26.33, 26.33, 26.33 a.u.

 SYSTEM =  unknown system                          
 POSCAR =   C                                      

 Startparameter for this run:
   NWRITE =      2    write-flag & timer
   PREC   = accura    normal or accurate (medium, high low for compatibility)
   ISTART =      0    job   : 0-new  1-cont  2-samecut
   ICHARG =      2    charge: 1-file 2-atom 10-const
   ISPIN  =      1    spin polarized calculation?
   LNONCOLLINEAR =      F non collinear calculations
   LSORBIT =      F    spin-orbit coupling
   INIWAV =      1    electr: 0-lowe 1-rand  2-diag
   LASPH  =      F    aspherical Exc in radial PAW
   METAGGA=      F    non-selfconsistent MetaGGA calc.

 Electronic Relaxation 1
   ENCUT  =  520.0 eV  38.22 Ry    6.18 a.u.   4.70  4.70  4.70*2*pi/ulx,y,z
   ENINI  =  520.0     initial cutoff
   ENAUG  =  644.9 eV  augmentation charge cutoff
   NELM   =     60;   NELMIN=  2; NELMDL= -5     # of ELM steps 
   EDIFF  = 0.1E-05   stopping-criterion for ELM
   LREAL  =      F    real-space projection
   NLSPLINE    = F    spline interpolate recip. space projectors
   LCOMPAT=      F    compatible to vasp.4.4
   GGA_COMPAT  = T    GGA compatible to vasp.4.4-vasp.4.6
   LMAXPAW     = -100 max onsite density
   LMAXMIX     =    2 max onsite mixed and CHGCAR
   VOSKOWN=      0    Vosko Wilk Nusair interpolation
   ROPT   =    0.00000
 Ionic relaxation
   EDIFFG = -.2E-01   stopping-criterion for IOM
   NSW    =     50    number of steps for IOM
   NBLOCK =      1;   KBLOCK =     50    inner block; outer block 
   IBRION =      2    ionic relax: 0-MD 1-quasi-New 2-CG
   NFREE  =      1    steps in history (QN), initial steepest desc. (CG)
   ISIF   =      3    stress and relaxation
   IWAVPR =     11    prediction:  0-non 1-charg 2-wave 3-comb
   ISYM   =      2    0-nonsym 1-usesym 2-fastsym
   LCORR  =      T    Harris-Foulkes like correction to forces

   POTIM  = 0.1000    time-step for ionic-motion
   TEIN   =    0.0    initial temperature
   TEBEG  =    0.0;   TEEND  =   0.0 temperature during run
   SMASS  =  -3.00    Nose mass-parameter (am)
   estimated Nose-frequenzy (Omega)   =  0.10E-29 period in steps = 0.63E+47 mass=  -0.146E-27a.u.
   SCALEE = 1.0000    scale energy and forces
   NPACO  =    256;   APACO  = 16.0  distance and # of slots for P.C.
   PSTRESS=    0.0 pullay stress

  Mass of Ions in am
   POMASS =  12.01
  Ionic Valenz
   ZVAL   =   4.00
  Atomic Wigner-Seitz radii
   RWIGS  =  -1.00
  virtual crystal weights 
   VCA    =   1.00
   NELECT =       8.0000    total number of electrons
   NUPDOWN=      -1.0000    fix difference up-down

 DOS related values:
   EMIN   =  10.00;   EMAX   =-10.00  energy-range for DOS
   EFERMI =   0.00
   ISMEAR =     0;   SIGMA  =   0.10  broadening in eV -4-tet -1-fermi 0-gaus

 Electronic relaxation 2 (details)
   IALGO  =     38    algorithm
   LDIAG  =      T    sub-space diagonalisation (order eigenvalues)
   LSUBROT=      F    optimize rotation matrix (better conditioning)
   TURBO    =      0    0=normal 1=particle mesh
   IRESTART =      0    0=no restart 2=restart with 2 vectors
   NREBOOT  =      0    no. of reboots
   NMIN     =      0    reboot dimension
   EREF     =   0.00    reference energy to select bands
   IMIX   =      4    mixing-type and parameters
     AMIX     =   0.40;   BMIX     =  1.00
     AMIX_MAG =   1.60;   BMIX_MAG =  1.00
     AMIN     =   0.10
     WC   =   100.;   INIMIX=   1;  MIXPRE=   1;  MAXMIX= -45

 Intra band minimization:
   WEIMIN = 0.0010     energy-eigenvalue tresh-hold
   EBREAK =  0.20E-08  absolut break condition
   DEPER  =   0.30     relativ break condition  

   TIME   =   0.40     timestep for ELM

  volume/ion in A,a.u.               =       5.70        38.44
  Fermi-wavevector in a.u.,A,eV,Ry     =   1.455076  2.749695 28.806888  2.117247
  Thomas-Fermi vector in A             =   2.572153
 
 Write flags
   LWAVE        =      F    write WAVECAR
   LDOWNSAMPLE  =      F    k-point downsampling of WAVECAR
   LCHARG       =      F    write CHGCAR
   LVTOT        =      F    write LOCPOT, total local potential
   LVHAR        =      F    write LOCPOT, Hartree potential only
   LELF         =      F    write electronic localiz. function (ELF)
   LORBIT       =      0    0 simple, 1 ext, 2 COOP (PROOUT), +10 PAW based schemes


 Dipole corrections
   LMONO  =      F    monopole corrections only (constant potential shift)
   LDIPOL =      F    correct potential (dipole corrections)
   IDIPOL =      0    1-x, 2-y, 3-z, 4-all directions 
   EPSILON=  1.0000000 bulk dielectric constant

 Exchange correlation treatment:
   GGA     =    --    GGA type
   LEXCH   =     8    internal setting for exchange type
   VOSKOWN=      0    Vosko Wilk Nusair interpolation
   LHFCALC =     F    Hartree Fock is set to
   LHFONE  =     F    Hartree Fock one center treatment
   AEXX    =    0.0000 exact exchange contribution

 Linear response parameters
   LEPSILON=     F    determine dielectric tensor
   LRPA    =     F    only Hartree local field effects (RPA)
   LNABLA  =     F    use nabla operator in PAW spheres
   LVEL    =     F    velocity operator in full k-point grid
   LINTERFAST=   F  fast interpolation
   KINTER  =     0    interpolate to denser k-point grid
   CSHIFT  =0.1000    complex shift for real part using Kramers Kronig
   OMEGAMAX=  -1.0    maximum frequency
   DEG_THRESHOLD= 0.2000000E-02 threshold for treating states as degnerate
   RTIME   =   -0.100 relaxation time in fs
  (WPLASMAI=    0.000 imaginary part of plasma frequency in eV, 0.658/RTIME)
   DFIELD  = 0.0000000 0.0000000 0.0000000 field for delta impulse in time
 
 Orbital magnetization related:
   ORBITALMAG=     F  switch on orbital magnetization
   LCHIMAG   =     F  perturbation theory with respect to B field
   DQ        =  0.001000  dq finite difference perturbation B field
   LLRAUG    =     F  two centre corrections for induced B field



--------------------------------------------------------------------------------------------------------


 conjugate gradient relaxation of ions
 charge density and potential will be updated during run
 non-spin polarized calculation
 Variant of blocked Davidson
 Davidson routine will perform the subspace rotation
 perform sub-space diagonalisation
    after iterative eigenvector-optimisation
 modified Broyden-mixing scheme, WC =      100.0
 initial mixing is a Kerker type mixing with AMIX =  0.4000 and BMIX =      1.0000
 Hartree-type preconditioning will be used
 using additional bands          124
 reciprocal scheme for non local part
 use partial core corrections
 calculate Harris-corrections to forces 
   (improved forces if not selfconsistent)
 use gradient corrections 
 use of overlap-Matrix (Vanderbilt PP)
 Gauss-broadening in eV      SIGMA  =   0.10


--------------------------------------------------------------------------------------------------------


  energy-cutoff  :      520.00
  volume of cell :       11.39
      direct lattice vectors                 reciprocal lattice vectors
     0.000000000  1.785976652  1.785976652    -0.279958867  0.279958867  0.279958867
     1.785976652  0.000000000  1.785976652     0.279958867 -0.279958867  0.279958867
     1.785976652  1.785976652  0.000000000     0.279958867  0.279958867 -0.279958867

  length of vectors
     2.525752403  2.525752403  2.525752403     0.484902982  0.484902982  0.484902982


 
 k-points in units of 2pi/SCALE and weight: A                                       
   0.00000000  0.00000000  0.00000000       0.031
  -0.06998972  0.06998972  0.06998972       0.125
  -0.13997943  0.13997943  0.13997943       0.125
  -0.00000000 -0.00000000  0.13997943       0.062
  -0.06998972  0.06998972  0.20996915       0.375
   0.13997943 -0.13997943  0.00000000       0.125
  -0.00000000 -0.00000000  0.27995887       0.094
   0.27995887  0.00000000 -0.13997943       0.062
 
 k-points in reciprocal lattice and weights: A                                       
   0.00000000  0.00000000  0.00000000       0.031
   0.25000000 -0.00000000  0.00000000       0.125
   0.50000000 -0.00000000  0.00000000       0.125
   0.25000000  0.25000000 -0.00000000       0.062
   0.50000000  0.25000000  0.00000000       0.375
  -0.25000000  0.25000000 -0.00000000       0.125
   0.50000000  0.50000000 -0.00000000       0.094
  -0.25000000  0.25000000  0.50000000       0.062
 
 position of ions in fractional coordinates (direct lattice) 
   0.25000000  0.25000000  0.25000000
   0.00000000  0.00000000  0.00000000
 
 position of ions in cartesian coordinates  (Angst):
   0.89298833  0.89298833  0.89298833
   0.00000000  0.00000000  0.00000000
 


--------------------------------------------------------------------------------------------------------


 k-point   1 :   0.0000 0.0000 0.0000  plane waves:     331
 k-point   2 :   0.2500-0.0000 0.0000  plane waves:     305
 k-point   3 :   0.5000-0.0000 0.0000  plane waves:     302
 k-point   4 :   0.2500 0.2500-0.0000  plane waves:     303
 k-point   5 :   0.5000 0.2500 0.0000  plane waves:     307
 k-point   6 :  -0.2500 0.2500-0.0000  plane waves:     307
 k-point   7 :   0.5000 0.5000-0.0000  plane waves:     302
 k-point   8 :  -0.2500 0.2500 0.5000  plane waves:     308

 maximum and minimum number of plane-waves per node :       331      302

 maximum number of plane-waves:       331
 maximum index in each direction: 
   IXMAX=    4   IYMAX=    4   IZMAX=    4
   IXMIN=   -5   IYMIN=   -5   IZMIN=   -5


 serial   3D FFT for wavefunctions
 parallel 3D FFT for charge:
    minimum data exchange during FFTs selected (reduces bandwidth)


 total amount of memory used by VASP MPI-rank0    36107. kBytes
=======================================================================

   base      :      30000. kBytes
   nonl-proj :        180. kBytes
   fftplans  :       1158. kBytes
   grid      :       1913. kBytes
   one-center:          6. kBytes
   wavefun   :       2850. kBytes
 
     INWAV:  cpu time    0.0000: real time    0.0000
 Broyden mixing: mesh for mixing (old mesh)
   NGX =  9   NGY =  9   NGZ =  9
  (NGX  = 40   NGY  = 40   NGZ  = 40)
  gives a total of    729 points

 initial charge density was supplied:
 charge density of overlapping atoms calculated
 number of electron       8.0000000 magnetization 
 keeping initial charge density in first step


--------------------------------------------------------------------------------------------------------


 Maximum index for augmentation-charges         3959 (set IRDMAX)


--------------------------------------------------------------------------------------------------------


 First call to EWALD:  gamma=   0.788
 Maximum number of real-space cells 3x 3x 3
 Maximum number of reciprocal cells 3x 3x 3

    FEWALD:  cpu time    0.0009: real time    0.0009


--------------------------------------- Iteration      1(   1)  ---------------------------------------


    POTLOK:  cpu time    0.0124: real time    0.0124
    SETDIJ:  cpu time    0.0012: real time    0.0012
     EDDAV:  cpu time    0.5341: real time    0.5468
       DOS:  cpu time    0.0011: real time    0.0109
    --------------------------------------------
      LOOP:  cpu time    0.5488: real time    0.5712

 eigenvalue-minimisations  :  2056
 total energy-change (2. order) : 0.2409821E+02  (-0.2618294E+03)
 number of electron       8.0000000 magnetization 
 augmentation part        8.0000000 magnetization 

 Free energy of the ion-electron system (eV)
  ---------------------------------------------------
  alpha Z        PSCENC =        28.83984161
  Ewald energy   TEWEN  =      -347.45693321
  -Hartree energ DENC   =       -17.70964068
  -exchange      EXHF   =         0.00000000
  -V(xc)+E(xc)   XCENC  =        27.37786058
  PAW double counting   =       217.04409276     -218.18290438
  entropy T*S    EENTRO =        -0.00352619
  eigenvalues    EBANDS =        39.89163248
  atomic energy  EATOM  =       294.29778662
  Solvation  Ediel_sol  =         0.00000000
  ---------------------------------------------------
  free energy    TOTEN  =        24.09820959 eV

  energy without entropy =       24.10173578  energy(sigma->0) =       24.09997269


--------------------------------------------------------------------------------------------------------




--------------------------------------- Iteration      1(   2)  ---------------------------------------


     EDDAV:  cpu time    0.5650: real time    0.5835
       DOS:  cpu time    0.0002: real time    0.0002
    --------------------------------------------
      LOOP:  cpu time    0.5653: real time    0.5837

 eigenvalue-minimisations  :  2264
 total energy-change (2. order) :-0.4172990E+02  (-0.3875690E+02)
 number of electron       8.0000000 magnetization 
 augmentation part        8.0000000 magnetization 

 Free energy of the ion-electron system (eV)
  ---------------------------------------------------
  alpha Z        PSCENC =        28.83984161
  Ewald energy   TEWEN  =      -347.45693321
  -Hartree energ DENC   =       -17.70964068
  -exchange      EXHF   =         0.00000000
  -V(xc)+E(xc)   XCENC  =        27.37786058
  PAW double counting   =       217.04409276     -218.18290438
  entropy T*S    EENTRO =        -0.00000000
  eigenvalues    EBANDS =        -1.84178947
  atomic energy  EATOM  =       294.29778662
  Solvation  Ediel_sol  =         0.00000000
  ---------------------------------------------------
  free energy    TOTEN  =       -17.63168617 eV

  energy without entropy =      -17.63168617  energy(sigma->0) =      -17.63168617


--------------------------------------------------------------------------------------------------------




--------------------------------------- Iteration      1(   3)  ---------------------------------------


     EDDAV:  cpu time    0.5935: real time    0.5943
       DOS:  cpu time    0.0002: real time    0.0002
    --------------------------------------------
      LOOP:  cpu time    0.5937: real time    0.5945

 eigenvalue-minimisations  :  2312
 total energy-change (2. order) :-0.6298840E+00  (-0.6271044E+00)
 number of electron       8.0000000 magnetization 
 augmentation part        8.0000000 magnetization 

 Free energy of the ion-electron system (eV)
  ---------------------------------------------------
  alpha Z        PSCENC =        28.83984161
  Ewald energy   TEWEN  =      -347.45693321
  -Hartree energ DENC   =       -17.70964068
  -exchange      EXHF   =         0.00000000
  -V(xc)+E(xc)   XCENC  =        27.37786058
  PAW double counting   =       217.04409276     -218.18290438
  entropy T*S    EENTRO =        -0.00000000
  eigenvalues    EBANDS =        -2.47167342
  atomic energy  EATOM  =       294.29778662
  Solvation  Ediel_sol  =         0.00000000
  ---------------------------------------------------
  free energy    TOTEN  =       -18.26157012 eV

  energy without entropy =      -18.26157012  energy(sigma->0) =      -18.26157012


--------------------------------------------------------------------------------------------------------




--------------------------------------- Iteration      1(   4)  ---------------------------------------


     EDDAV:  cpu time    0.5699: real time    0.5702
       DOS:  cpu time    0.0002: real time    0.0002
    --------------------------------------------
      LOOP:  cpu time    0.5701: real time    0.5704

 eigenvalue-minimisations  :  2288
 total energy-change (2. order) :-0.7261571E-04  (-0.7261216E-04)
 number of electron       8.0000000 magnetization 
 augmentation part        8.0000000 magnetization 

 Free energy of the ion-electron system (eV)
  ---------------------------------------------------
  alpha Z        PSCENC =        28.83984161
  Ewald energy   TEWEN  =      -347.45693321
  -Hartree energ DENC   =       -17.70964068
  -exchange      EXHF   =         0.00000000
  -V(xc)+E(xc)   XCENC  =        27.37786058
  PAW double counting   =       217.04409276     -218.18290438
  entropy T*S    EENTRO =        -0.00000000
  eigenvalues    EBANDS =        -2.47174604
  atomic energy  EATOM  =       294.29778662
  Solvation  Ediel_sol  =         0.00000000
  ---------------------------------------------------
  free energy    TOTEN  =       -18.26164274 eV

  energy without entropy =      -18.26164274  energy(sigma->0) =      -18.26164274


--------------------------------------------------------------------------------------------------------




--------------------------------------- Iteration      1(   5)  ---------------------------------------


     EDDAV:  cpu time    0.5077: real time    0.5077
       DOS:  cpu time    0.0003: real time    0.0003
    CHARGE:  cpu time    0.0039: real time    0.0039
    MIXING:  cpu time    0.0006: real time    0.0206
    --------------------------------------------
      LOOP:  cpu time    0.5125: real time    0.5325

 eigenvalue-minimisations  :  1928
 total energy-change (2. order) :-0.2402771E-09  (-0.3679823E-09)
 number of electron       7.9999999 magnetization 
 augmentation part        0.2111975 magnetization 

 Broyden mixing:
  rms(total) = 0.57306E+00    rms(broyden)= 0.57299E+00
  rms(prec ) = 0.19348E+01
  weight for this iteration     100.00

 Free energy of the ion-electron system (eV)
  ---------------------------------------------------
  alpha Z        PSCENC =        28.83984161
  Ewald energy   TEWEN  =      -347.45693321
  -Hartree energ DENC   =       -17.70964068
  -exchange      EXHF   =         0.00000000
  -V(xc)+E(xc)   XCENC  =        27.37786058
  PAW double counting   =       217.04409276     -218.18290438
  entropy T*S    EENTRO =        -0.00000000
  eigenvalues    EBANDS =        -2.47174604
  atomic energy  EATOM  =       294.29778662
  Solvation  Ediel_sol  =         0.00000000
  ---------------------------------------------------
  free energy    TOTEN  =       -18.26164274 eV

  energy without entropy =      -18.26164274  energy(sigma->0) =      -18.26164274


--------------------------------------------------------------------------------------------------------




--------------------------------------- Iteration      1(   6)  ---------------------------------------


    POTLOK:  cpu time    0.0109: real time    0.0109
    SETDIJ:  cpu time    0.0012: real time    0.0012
     EDDAV:  cpu time    0.5974: real time    0.5975
       DOS:  cpu time    0.0002: real time    0.0002
    CHARGE:  cpu time    0.0039: real time    0.0039
    MIXING:  cpu time    0.0005: real time    0.0005
    --------------------------------------------
      LOOP:  cpu time    0.6141: real time    0.6141

 eigenvalue-minimisations  :  2376
 total energy-change (2. order) : 0.5266754E+00  (-0.6878318E-02)
 number of electron       7.9999999 magnetization 
 augmentation part        0.2066196 magnetization 

 Broyden mixing:
  rms(total) = 0.34665E+00    rms(broyden)= 0.34664E+00
  rms(prec ) = 0.10579E+01
  weight for this iteration     100.00

 eigenvalues of (default mixing * dielectric matrix)
  average eigenvalue GAMMA=   2.3386
  2.3386

 Free energy of the ion-electron system (eV)
  ---------------------------------------------------
  alpha Z        PSCENC =        28.83984161
  Ewald energy   TEWEN  =      -347.45693321
  -Hartree energ DENC   =       -21.71872393
  -exchange      EXHF   =         0.00000000
  -V(xc)+E(xc)   XCENC  =        27.73609527
  PAW double counting   =       379.08558012     -380.35335196
  entropy T*S    EENTRO =        -0.00000000
  eigenvalues    EBANDS =         1.83473810
  atomic energy  EATOM  =       294.29778662
  Solvation  Ediel_sol  =         0.00000000
  ---------------------------------------------------
  free energy    TOTEN  =       -17.73496738 eV

  energy without entropy =      -17.73496738  energy(sigma->0) =      -17.73496738


--------------------------------------------------------------------------------------------------------




--------------------------------------- Iteration      1(   7)  ---------------------------------------


    POTLOK:  cpu time    0.0107: real time    0.0107
    SETDIJ:  cpu time    0.0012: real time    0.0012
     EDDAV:  cpu time    0.5661: real time    0.5662
       DOS:  cpu time    0.0002: real time    0.0002
    CHARGE:  cpu time    0.0048: real time    0.0048
    MIXING:  cpu time    0.0005: real time    0.0005
    --------------------------------------------
      LOOP:  cpu time    0.5835: real time    0.5836

 eigenvalue-minimisations  :  2272
 total energy-change (2. order) : 0.1794736E+00  (-0.7774985E-02)
 number of electron       7.9999999 magnetization 
 augmentation part        0.2017488 magnetization 

 Broyden mixing:
  rms(total) = 0.78988E-01    rms(broyden)= 0.78975E-01
  rms(prec ) = 0.11922E+00
  weight for this iteration     100.00

 eigenvalues of (default mixing * dielectric matrix)
  average eigenvalue GAMMA=   2.1682
  1.9116  2.4249

 Free energy of the ion-electron system (eV)
  ---------------------------------------------------
  alpha Z        PSCENC =        28.83984161
  Ewald energy   TEWEN  =      -347.45693321
  -Hartree energ DENC   =       -26.93195671
  -exchange      EXHF   =         0.00000000
  -V(xc)+E(xc)   XCENC  =        28.21377827
  PAW double counting   =       691.39525505     -692.78656743
  entropy T*S    EENTRO =        -0.00000000
  eigenvalues    EBANDS =         6.87330201
  atomic energy  EATOM  =       294.29778662
  Solvation  Ediel_sol  =         0.00000000
  ---------------------------------------------------
  free energy    TOTEN  =       -17.55549380 eV

  energy without entropy =      -17.55549380  energy(sigma->0) =      -17.55549380


--------------------------------------------------------------------------------------------------------




--------------------------------------- Iteration      1(   8)  ---------------------------------------


    POTLOK:  cpu time    0.0107: real time    0.0107
    SETDIJ:  cpu time    0.0012: real time    0.0012
     EDDAV:  cpu time    0.5644: real time    0.5644
       DOS:  cpu time    0.0002: real time    0.0002
    CHARGE:  cpu time    0.0039: real time    0.0039
    MIXING:  cpu time    0.0005: real time    0.0005
    --------------------------------------------
      LOOP:  cpu time    0.5809: real time    0.5810

 eigenvalue-minimisations  :  2248
 total energy-change (2. order) :-0.1624807E-02  (-0.3435011E-04)
 number of electron       7.9999999 magnetization 
 augmentation part        0.2018467 magnetization 

 Broyden mixing:
  rms(total) = 0.55351E-02    rms(broyden)= 0.55302E-02
  rms(prec ) = 0.15763E-01
  weight for this iteration     100.00

 eigenvalues of (default mixing * dielectric matrix)
  average eigenvalue GAMMA=   2.0597
  1.4281  2.3755  2.3755

 Free energy of the ion-electron system (eV)
  ---------------------------------------------------
  alpha Z        PSCENC =        28.83984161
  Ewald energy   TEWEN  =      -347.45693321
  -Hartree energ DENC   =       -27.08249968
  -exchange      EXHF   =         0.00000000
  -V(xc)+E(xc)   XCENC  =        28.23276813
  PAW double counting   =       778.04054168     -779.40447401
  entropy T*S    EENTRO =        -0.00000000
  eigenvalues    EBANDS =         6.97585025
  atomic energy  EATOM  =       294.29778662
  Solvation  Ediel_sol  =         0.00000000
  ---------------------------------------------------
  free energy    TOTEN  =       -17.55711860 eV

  energy without entropy =      -17.55711860  energy(sigma->0) =      -17.55711860


--------------------------------------------------------------------------------------------------------




--------------------------------------- Iteration      1(   9)  ---------------------------------------


    POTLOK:  cpu time    0.0107: real time    0.0107
    SETDIJ:  cpu time    0.0012: real time    0.0012
     EDDAV:  cpu time    0.5862: real time    0.5866
       DOS:  cpu time    0.0002: real time    0.0002
    CHARGE:  cpu time    0.0043: real time    0.0043
    MIXING:  cpu time    0.0005: real time    0.0005
    --------------------------------------------
      LOOP:  cpu time    0.6031: real time    0.6035

 eigenvalue-minimisations  :  2376
 total energy-change (2. order) :-0.5316607E-04  (-0.3889582E-05)
 number of electron       7.9999999 magnetization 
 augmentation part        0.2019301 magnetization 

 Broyden mixing:
  rms(total) = 0.34947E-02    rms(broyden)= 0.34947E-02
  rms(prec ) = 0.54493E-02
  weight for this iteration     100.00

 eigenvalues of (default mixing * dielectric matrix)
  average eigenvalue GAMMA=   2.0534
  0.9824  2.7535  2.4637  2.0141

 Free energy of the ion-electron system (eV)
  ---------------------------------------------------
  alpha Z        PSCENC =        28.83984161
  Ewald energy   TEWEN  =      -347.45693321
  -Hartree energ DENC   =       -27.02819533
  -exchange      EXHF   =         0.00000000
  -V(xc)+E(xc)   XCENC  =        28.22832327
  PAW double counting   =       779.92660011     -781.28549851
  entropy T*S    EENTRO =        -0.00000000
  eigenvalues    EBANDS =         6.92090366
  atomic energy  EATOM  =       294.29778662
  Solvation  Ediel_sol  =         0.00000000
  ---------------------------------------------------
  free energy    TOTEN  =       -17.55717177 eV

  energy without entropy =      -17.55717177  energy(sigma->0) =      -17.55717177


--------------------------------------------------------------------------------------------------------




--------------------------------------- Iteration      1(  10)  ---------------------------------------


    POTLOK:  cpu time    0.0109: real time    0.0109
    SETDIJ:  cpu time    0.0012: real time    0.0012
     EDDAV:  cpu time    0.5659: real time    0.5659
       DOS:  cpu time    0.0002: real time    0.0002
    CHARGE:  cpu time    0.0039: real time    0.0039
    MIXING:  cpu time    0.0005: real time    0.0005
    --------------------------------------------
      LOOP:  cpu time    0.5826: real time    0.5826

 eigenvalue-minimisations  :  2240
 total energy-change (2. order) :-0.1742600E-04  (-0.1181892E-06)
 number of electron       7.9999999 magnetization 
 augmentation part        0.2019222 magnetization 

 Broyden mixing:
  rms(total) = 0.12695E-03    rms(broyden)= 0.12687E-03
  rms(prec ) = 0.45980E-03
  weight for this iteration     100.00

 eigenvalues of (default mixing * dielectric matrix)
  average eigenvalue GAMMA=   1.8588
  2.7924  2.4485  2.0210  1.0160  1.0160

 Free energy of the ion-electron system (eV)
  ---------------------------------------------------
  alpha Z        PSCENC =        28.83984161
  Ewald energy   TEWEN  =      -347.45693321
  -Hartree energ DENC   =       -27.04585138
  -exchange      EXHF   =         0.00000000
  -V(xc)+E(xc)   XCENC  =        28.22991016
  PAW double counting   =       776.29500466     -777.65427161
  entropy T*S    EENTRO =        -0.00000000
  eigenvalues    EBANDS =         6.93732395
  atomic energy  EATOM  =       294.29778662
  Solvation  Ediel_sol  =         0.00000000
  ---------------------------------------------------
  free energy    TOTEN  =       -17.55718920 eV

  energy without entropy =      -17.55718920  energy(sigma->0) =      -17.55718920


--------------------------------------------------------------------------------------------------------




--------------------------------------- Iteration      1(  11)  ---------------------------------------


    POTLOK:  cpu time    0.0107: real time    0.0107
    SETDIJ:  cpu time    0.0012: real time    0.0012
     EDDAV:  cpu time    0.4958: real time    0.4959
       DOS:  cpu time    0.0002: real time    0.0002
    --------------------------------------------
      LOOP:  cpu time    0.5079: real time    0.5080

 eigenvalue-minimisations  :  1768
 total energy-change (2. order) :-0.6691823E-07  (-0.8625857E-09)
 number of electron       7.9999999 magnetization 
 augmentation part        0.2019222 magnetization 

 Free energy of the ion-electron system (eV)
  ---------------------------------------------------
  alpha Z        PSCENC =        28.83984161
  Ewald energy   TEWEN  =      -347.45693321
  -Hartree energ DENC   =       -27.04798481
  -exchange      EXHF   =         0.00000000
  -V(xc)+E(xc)   XCENC  =        28.23009826
  PAW double counting   =       776.24965484     -777.60900428
  entropy T*S    EENTRO =        -0.00000000
  eigenvalues    EBANDS =         6.93935170
  atomic energy  EATOM  =       294.29778662
  Solvation  Ediel_sol  =         0.00000000
  ---------------------------------------------------
  free energy    TOTEN  =       -17.55718926 eV

  energy without entropy =      -17.55718926  energy(sigma->0) =      -17.55718926


--------------------------------------------------------------------------------------------------------




 average (electrostatic) potential at core
  the test charge radii are     0.6991
  (the norm of the test charge is              1.0000)
       1 -45.2857       2 -45.2857
 
 
 
 E-fermi :  10.9344     XC(G=0): -13.1946     alpha+bet :-17.5930


 k-point     1 :       0.0000    0.0000    0.0000
  band No.  band energies     occupation 
      1     -11.6981      2.00000
      2       9.7563      2.00000
      3       9.7563      2.00000
      4       9.7563      2.00000
      5      15.3120      0.00000
      6      15.3120      0.00000
      7      15.3120      0.00000
      8      22.9877      0.00000
      9      28.9512      0.00000
     10      36.1778      0.00000
     11      36.1778      0.00000
     12      37.1654      0.00000
     13      37.1654      0.00000
     14      37.1654      0.00000
     15      44.4219      0.00000
     16      56.7815      0.00000
     17      56.7815      0.00000
     18      56.7815      0.00000
     19      76.9722      0.00000
     20      76.9722      0.00000
     21      76.9722      0.00000
     22      81.3443      0.00000
     23      81.3443      0.00000
     24      83.8175      0.00000
     25      83.8175      0.00000
     26      83.8175      0.00000
     27      88.6083      0.00000
     28      88.6083      0.00000
     29      88.6083      0.00000
     30      96.4968      0.00000
     31     108.7571      0.00000
     32     108.7571      0.00000
     33     108.7571      0.00000
     34     114.1555      0.00000
     35     114.1555      0.00000
     36     114.1555      0.00000
     37     114.7735      0.00000
     38     114.7735      0.00000
     39     114.8409      0.00000
     40     114.8409      0.00000
     41     118.6888      0.00000
     42     118.6888      0.00000
     43     118.6888      0.00000
     44     119.6504      0.00000
     45     119.6504      0.00000
     46     119.6504      0.00000
     47     120.9199      0.00000
     48     120.9199      0.00000
     49     120.9199      0.00000
     50     122.2506      0.00000
     51     128.6039      0.00000
     52     130.3783      0.00000
     53     130.3783      0.00000
     54     130.3783      0.00000
     55     131.1311      0.00000
     56     131.1311      0.00000
     57     131.1311      0.00000
     58     138.1343      0.00000
     59     142.9849      0.00000
     60     169.0517      0.00000
     61     169.0517      0.00000
     62     169.0517      0.00000
     63     175.3708      0.00000
     64     175.3708      0.00000
     65     180.3312      0.00000
     66     180.3312      0.00000
     67     180.3312      0.00000
     68     182.5017      0.00000
     69     192.0201      0.00000
     70     192.0201      0.00000
     71     192.0201      0.00000
     72     204.0796      0.00000
     73     204.0796      0.00000
     74     204.0796      0.00000
     75     204.5247      0.00000
     76     204.5247      0.00000
     77     205.5827      0.00000
     78     205.5827      0.00000
     79     205.5827      0.00000
     80     208.7938      0.00000
     81     208.7938      0.00000
     82     208.7938      0.00000
     83     210.9519      0.00000
     84     210.9519      0.00000
     85     210.9519      0.00000
     86     211.8595      0.00000
     87     211.8595      0.00000
     88     217.0483      0.00000
     89     219.0948      0.00000
     90     219.0948      0.00000
     91     219.0948      0.00000
     92     220.5840      0.00000
     93     220.5840      0.00000
     94     224.3187      0.00000
     95     224.3187      0.00000
     96     224.3187      0.00000
     97     225.1586      0.00000
     98     225.1586      0.00000
     99     225.1586      0.00000
    100     225.8079      0.00000
    101     225.8079      0.00000
    102     225.8079      0.00000
    103     225.8382      0.00000
    104     226.8873      0.00000
    105     226.8873      0.00000
    106     226.8873      0.00000
    107     228.1655      0.00000
    108     228.6742      0.00000
    109     228.6742      0.00000
    110     228.6742      0.00000
    111     228.8241      0.00000
    112     228.8241      0.00000
    113     251.2696      0.00000
    114     251.2696      0.00000
    115     251.2696      0.00000
    116     254.6131      0.00000
    117     263.9659      0.00000
    118     263.9659      0.00000
    119     263.9659      0.00000
    120     265.1642      0.00000
    121     268.4458      0.00000
    122     268.4461      0.00000
    123     268.4473      0.00000
    124     269.8987      0.00000
    125     269.9560      0.00000
    126     270.1121      0.00000
    127     270.1224      0.00000
    128     270.1422      0.00000

 k-point     2 :       0.2500   -0.0000    0.0000
  band No.  band energies     occupation 
      1      -9.9859      2.00000
      2       3.1659      2.00000
      3       8.0120      2.00000
      4       8.0120      2.00000
      5      17.5068      0.00000
      6      17.5068      0.00000
      7      17.8462      0.00000
      8      24.3171      0.00000
      9      30.3756      0.00000
     10      32.0486      0.00000
     11      32.0486      0.00000
     12      35.1178      0.00000
     13      48.5705      0.00000
     14      48.5705      0.00000
     15      52.2095      0.00000
     16      52.2095      0.00000
     17      53.1338      0.00000
     18      54.1178      0.00000
     19      68.6481      0.00000
     20      68.6481      0.00000
     21      78.3846      0.00000
     22      79.3068      0.00000
     23      79.3068      0.00000
     24      84.4518      0.00000
     25      84.4518      0.00000
     26      85.7689      0.00000
     27      86.7247      0.00000
     28      91.2084      0.00000
     29      92.2314      0.00000
     30      92.2314      0.00000
     31     100.8989      0.00000
     32     101.7610      0.00000
     33     101.7610      0.00000
     34     104.6630      0.00000
     35     104.6630      0.00000
     36     105.1887      0.00000
     37     107.9040      0.00000
     38     107.9040      0.00000
     39     110.3475      0.00000
     40     116.1547      0.00000
     41     116.1547      0.00000
     42     117.0085      0.00000
     43     118.8705      0.00000
     44     125.7051      0.00000
     45     125.7051      0.00000
     46     128.0280      0.00000
     47     128.0280      0.00000
     48     128.9887      0.00000
     49     135.7421      0.00000
     50     135.9786      0.00000
     51     135.9786      0.00000
     52     137.7836      0.00000
     53     140.0460      0.00000
     54     144.9889      0.00000
     55     144.9889      0.00000
     56     145.6659      0.00000
     57     149.3680      0.00000
     58     149.3680      0.00000
     59     152.1922      0.00000
     60     152.1922      0.00000
     61     159.0106      0.00000
     62     164.9604      0.00000
     63     164.9604      0.00000
     64     165.9587      0.00000
     65     168.0148      0.00000
     66     172.9801      0.00000
     67     172.9801      0.00000
     68     181.7803      0.00000
     69     184.9847      0.00000
     70     184.9847      0.00000
     71     191.6355      0.00000
     72     191.8418      0.00000
     73     191.8418      0.00000
     74     192.5675      0.00000
     75     192.7425      0.00000
     76     192.7425      0.00000
     77     196.3497      0.00000
     78     196.3497      0.00000
     79     201.3346      0.00000
     80     201.9215      0.00000
     81     201.9215      0.00000
     82     202.7620      0.00000
     83     205.4248      0.00000
     84     205.4248      0.00000
     85     210.0828      0.00000
     86     213.0224      0.00000
     87     213.5419      0.00000
     88     213.5419      0.00000
     89     213.7792      0.00000
     90     216.2717      0.00000
     91     217.8456      0.00000
     92     217.8456      0.00000
     93     221.7750      0.00000
     94     221.7750      0.00000
     95     222.2519      0.00000
     96     225.1669      0.00000
     97     225.1669      0.00000
     98     226.5860      0.00000
     99     232.9747      0.00000
    100     232.9747      0.00000
    101     235.7070      0.00000
    102     237.1493      0.00000
    103     237.1493      0.00000
    104     238.8670      0.00000
    105     239.1971      0.00000
    106     239.1971      0.00000
    107     239.8655      0.00000
    108     240.6913      0.00000
    109     240.6913      0.00000
    110     246.1219      0.00000
    111     248.6863      0.00000
    112     248.6863      0.00000
    113     248.8694      0.00000
    114     249.9094      0.00000
    115     249.9094      0.00000
    116     256.0245      0.00000
    117     258.6178      0.00000
    118     260.1212      0.00000
    119     260.1212      0.00000
    120     261.8593      0.00000
    121     263.9844      0.00000
    122     264.2542      0.00000
    123     264.2542      0.00000
    124     265.5320      0.00000
    125     265.5320      0.00000
    126     266.9696      0.00000
    127     266.9697      0.00000
    128     267.0877      0.00000

 k-point     3 :       0.5000   -0.0000    0.0000
  band No.  band energies     occupation 
      1      -5.9357      2.00000
      2      -3.6029      2.00000
      3       6.9601      2.00000
      4       6.9601      2.00000
      5      18.1705      0.00000
      6      18.1705      0.00000
      7      18.5298      0.00000
      8      25.3888      0.00000
      9      31.5745      0.00000
     10      33.8305      0.00000
     11      35.5915      0.00000
     12      35.5915      0.00000
     13      43.6178      0.00000
     14      43.6178      0.00000
     15      55.6026      0.00000
     16      62.8129      0.00000
     17      62.8129      0.00000
     18      65.5150      0.00000
     19      66.6652      0.00000
     20      66.6652      0.00000
     21      69.1839      0.00000
     22      69.1839      0.00000
     23      72.8096      0.00000
     24      74.5318      0.00000
     25      82.8358      0.00000
     26      82.8358      0.00000
     27      85.6002      0.00000
     28      85.6002      0.00000
     29      89.3772      0.00000
     30      92.9538      0.00000
     31      94.6609      0.00000
     32      94.6609      0.00000
     33      96.6995      0.00000
     34      97.1987      0.00000
     35     106.0751      0.00000
     36     106.0751      0.00000
     37     112.0139      0.00000
     38     113.5029      0.00000
     39     113.5029      0.00000
     40     114.9189      0.00000
     41     121.4030      0.00000
     42     123.4151      0.00000
     43     131.3586      0.00000
     44     131.3586      0.00000
     45     133.6718      0.00000
     46     133.6718      0.00000
     47     136.2373      0.00000
     48     136.2373      0.00000
     49     137.4979      0.00000
     50     137.4979      0.00000
     51     139.2067      0.00000
     52     143.1724      0.00000
     53     145.0202      0.00000
     54     145.0202      0.00000
     55     151.3829      0.00000
     56     151.6432      0.00000
     57     151.6432      0.00000
     58     159.2156      0.00000
     59     159.2156      0.00000
     60     159.6291      0.00000
     61     159.6291      0.00000
     62     164.0209      0.00000
     63     164.4410      0.00000
     64     165.0633      0.00000
     65     166.5202      0.00000
     66     166.5202      0.00000
     67     167.8363      0.00000
     68     167.8363      0.00000
     69     168.1443      0.00000
     70     169.5453      0.00000
     71     177.4256      0.00000
     72     183.2269      0.00000
     73     183.9839      0.00000
     74     183.9840      0.00000
     75     185.2104      0.00000
     76     185.2104      0.00000
     77     188.7272      0.00000
     78     188.7272      0.00000
     79     196.9702      0.00000
     80     196.9702      0.00000
     81     201.3058      0.00000
     82     203.8119      0.00000
     83     203.8119      0.00000
     84     206.6732      0.00000
     85     207.3870      0.00000
     86     212.4232      0.00000
     87     212.5378      0.00000
     88     212.5378      0.00000
     89     213.2132      0.00000
     90     219.7464      0.00000
     91     219.7464      0.00000
     92     221.6269      0.00000
     93     222.1170      0.00000
     94     228.2270      0.00000
     95     228.2270      0.00000
     96     229.7207      0.00000
     97     230.1609      0.00000
     98     230.1609      0.00000
     99     230.7353      0.00000
    100     230.7990      0.00000
    101     230.7990      0.00000
    102     232.3158      0.00000
    103     232.3158      0.00000
    104     233.5296      0.00000
    105     233.7923      0.00000
    106     233.7923      0.00000
    107     233.8007      0.00000
    108     247.5525      0.00000
    109     249.0770      0.00000
    110     249.0770      0.00000
    111     251.1831      0.00000
    112     253.7041      0.00000
    113     253.7041      0.00000
    114     257.4863      0.00000
    115     257.4863      0.00000
    116     257.7017      0.00000
    117     257.8971      0.00000
    118     257.9579      0.00000
    119     257.9580      0.00000
    120     263.3616      0.00000
    121     267.1931      0.00000
    122     267.1931      0.00000
    123     268.3493      0.00000
    124     269.3249      0.00000
    125     272.4349      0.00000
    126     273.2101      0.00000
    127     273.2285      0.00000
    128     273.9146      0.00000

 k-point     4 :       0.2500    0.2500   -0.0000
  band No.  band energies     occupation 
      1      -9.4174      2.00000
      2       5.2384      2.00000
      3       5.6379      2.00000
      4       5.6379      2.00000
      5      14.1561      0.00000
      6      19.9313      0.00000
      7      21.3013      0.00000
      8      21.3013      0.00000
      9      29.7856      0.00000
     10      31.8653      0.00000
     11      39.0938      0.00000
     12      42.2517      0.00000
     13      42.2517      0.00000
     14      45.2470      0.00000
     15      50.4953      0.00000
     16      50.4953      0.00000
     17      55.3892      0.00000
     18      60.2531      0.00000
     19      62.3466      0.00000
     20      73.8727      0.00000
     21      73.8727      0.00000
     22      78.1995      0.00000
     23      78.1995      0.00000
     24      78.5336      0.00000
     25      80.8121      0.00000
     26      82.3301      0.00000
     27      88.8440      0.00000
     28      92.6919      0.00000
     29      92.6919      0.00000
     30     100.1166      0.00000
     31     101.5191      0.00000
     32     101.5191      0.00000
     33     103.3619      0.00000
     34     104.2066      0.00000
     35     106.0139      0.00000
     36     108.1186      0.00000
     37     108.5232      0.00000
     38     108.5232      0.00000
     39     110.8402      0.00000
     40     113.3676      0.00000
     41     113.3676      0.00000
     42     114.5294      0.00000
     43     119.9088      0.00000
     44     121.7443      0.00000
     45     121.7443      0.00000
     46     128.4379      0.00000
     47     131.9875      0.00000
     48     131.9875      0.00000
     49     132.1668      0.00000
     50     132.4246      0.00000
     51     133.3868      0.00000
     52     136.9148      0.00000
     53     141.5604      0.00000
     54     149.2164      0.00000
     55     149.9345      0.00000
     56     149.9345      0.00000
     57     155.9502      0.00000
     58     159.2000      0.00000
     59     159.2000      0.00000
     60     159.8747      0.00000
     61     160.0559      0.00000
     62     160.0559      0.00000
     63     169.6946      0.00000
     64     169.6946      0.00000
     65     171.6010      0.00000
     66     174.9706      0.00000
     67     175.2721      0.00000
     68     177.3184      0.00000
     69     178.9187      0.00000
     70     178.9187      0.00000
     71     180.2759      0.00000
     72     181.9932      0.00000
     73     183.5891      0.00000
     74     183.5891      0.00000
     75     186.7025      0.00000
     76     188.6220      0.00000
     77     191.8853      0.00000
     78     191.8853      0.00000
     79     199.7584      0.00000
     80     199.7885      0.00000
     81     199.7885      0.00000
     82     201.3713      0.00000
     83     202.9522      0.00000
     84     205.2571      0.00000
     85     208.4283      0.00000
     86     208.4283      0.00000
     87     211.9482      0.00000
     88     220.7328      0.00000
     89     221.9444      0.00000
     90     221.9444      0.00000
     91     224.1810      0.00000
     92     225.4183      0.00000
     93     225.4183      0.00000
     94     225.7228      0.00000
     95     226.4906      0.00000
     96     227.1575      0.00000
     97     228.9126      0.00000
     98     230.6492      0.00000
     99     230.6492      0.00000
    100     230.6533      0.00000
    101     234.8372      0.00000
    102     236.6944      0.00000
    103     236.6944      0.00000
    104     238.3829      0.00000
    105     240.0061      0.00000
    106     240.3927      0.00000
    107     240.3927      0.00000
    108     241.3399      0.00000
    109     246.4634      0.00000
    110     246.5356      0.00000
    111     246.6005      0.00000
    112     246.6005      0.00000
    113     249.1601      0.00000
    114     249.6336      0.00000
    115     249.6336      0.00000
    116     249.9889      0.00000
    117     250.6557      0.00000
    118     251.9263      0.00000
    119     251.9263      0.00000
    120     253.7020      0.00000
    121     255.4543      0.00000
    122     255.4543      0.00000
    123     256.7664      0.00000
    124     258.5788      0.00000
    125     265.3251      0.00000
    126     268.0748      0.00000
    127     272.3208      0.00000
    128     272.3209      0.00000

 k-point     5 :       0.5000    0.2500    0.0000
  band No.  band energies     occupation 
      1      -5.6874      2.00000
      2      -1.0228      2.00000
      3       3.0187      2.00000
      4       4.8852      2.00000
      5      15.7823      0.00000
      6      21.1291      0.00000
      7      22.5151      0.00000
      8      23.0209      0.00000
      9      29.9933      0.00000
     10      33.2706      0.00000
     11      37.1819      0.00000
     12      40.6181      0.00000
     13      45.6614      0.00000
     14      51.0922      0.00000
     15      53.7939      0.00000
     16      55.4974      0.00000
     17      60.4122      0.00000
     18      60.5050      0.00000
     19      61.8995      0.00000
     20      67.3267      0.00000
     21      69.1494      0.00000
     22      71.0646      0.00000
     23      72.9298      0.00000
     24      76.2129      0.00000
     25      78.4177      0.00000
     26      82.2203      0.00000
     27      84.2720      0.00000
     28      87.0439      0.00000
     29      89.1324      0.00000
     30      90.2920      0.00000
     31      96.1350      0.00000
     32      98.3781      0.00000
     33     101.1023      0.00000
     34     101.4022      0.00000
     35     105.4457      0.00000
     36     108.5756      0.00000
     37     109.9537      0.00000
     38     117.3522      0.00000
     39     117.6873      0.00000
     40     118.0490      0.00000
     41     119.4601      0.00000
     42     121.3823      0.00000
     43     125.1611      0.00000
     44     125.2786      0.00000
     45     128.9112      0.00000
     46     130.3630      0.00000
     47     132.8138      0.00000
     48     135.2147      0.00000
     49     136.4196      0.00000
     50     136.7540      0.00000
     51     143.5417      0.00000
     52     143.6973      0.00000
     53     148.0129      0.00000
     54     150.4783      0.00000
     55     153.2665      0.00000
     56     155.1832      0.00000
     57     155.4346      0.00000
     58     157.0056      0.00000
     59     158.9698      0.00000
     60     160.1353      0.00000
     61     162.3892      0.00000
     62     164.3556      0.00000
     63     164.7616      0.00000
     64     165.8977      0.00000
     65     166.3749      0.00000
     66     169.1867      0.00000
     67     169.2613      0.00000
     68     171.6124      0.00000
     69     176.1052      0.00000
     70     176.8123      0.00000
     71     177.3488      0.00000
     72     179.8653      0.00000
     73     181.7682      0.00000
     74     183.1863      0.00000
     75     184.7100      0.00000
     76     188.9013      0.00000
     77     189.8249      0.00000
     78     191.8340      0.00000
     79     192.2206      0.00000
     80     195.9021      0.00000
     81     196.9002      0.00000
     82     200.4067      0.00000
     83     200.6695      0.00000
     84     202.3835      0.00000
     85     204.5289      0.00000
     86     205.0847      0.00000
     87     206.1453      0.00000
     88     208.0614      0.00000
     89     211.6078      0.00000
     90     212.2237      0.00000
     91     213.5278      0.00000
     92     217.1083      0.00000
     93     218.8717      0.00000
     94     220.9881      0.00000
     95     223.2512      0.00000
     96     225.4348      0.00000
     97     225.5086      0.00000
     98     226.7312      0.00000
     99     227.9438      0.00000
    100     229.9357      0.00000
    101     231.6645      0.00000
    102     232.9871      0.00000
    103     235.0479      0.00000
    104     235.9019      0.00000
    105     237.4001      0.00000
    106     242.1646      0.00000
    107     243.9828      0.00000
    108     245.7715      0.00000
    109     247.7678      0.00000
    110     248.5522      0.00000
    111     251.0782      0.00000
    112     251.8056      0.00000
    113     254.1835      0.00000
    114     256.1807      0.00000
    115     258.4754      0.00000
    116     258.8882      0.00000
    117     259.4027      0.00000
    118     261.6622      0.00000
    119     262.0803      0.00000
    120     266.1789      0.00000
    121     266.4483      0.00000
    122     269.5667      0.00000
    123     269.6274      0.00000
    124     271.1362      0.00000
    125     273.0610      0.00000
    126     273.3985      0.00000
    127     274.7255      0.00000
    128     276.6401      0.00000

 k-point     6 :      -0.2500    0.2500   -0.0000
  band No.  band energies     occupation 
      1      -7.2386      2.00000
      2       1.0595      2.00000
      3       2.1528      2.00000
      4       6.7481      2.00000
      5      17.6324      0.00000
      6      19.7194      0.00000
      7      22.0595      0.00000
      8      23.5973      0.00000
      9      29.3301      0.00000
     10      30.4126      0.00000
     11      34.4084      0.00000
     12      42.8990      0.00000
     13      45.4188      0.00000
     14      51.0253      0.00000
     15      51.8657      0.00000
     16      52.0637      0.00000
     17      60.5513      0.00000
     18      64.3266      0.00000
     19      64.7448      0.00000
     20      65.5062      0.00000
     21      69.9918      0.00000
     22      73.5227      0.00000
     23      75.9018      0.00000
     24      76.4310      0.00000
     25      78.0179      0.00000
     26      80.9691      0.00000
     27      87.1724      0.00000
     28      88.6552      0.00000
     29      89.3080      0.00000
     30      92.9473      0.00000
     31      97.8910      0.00000
     32      98.6013      0.00000
     33      99.7651      0.00000
     34     101.8924      0.00000
     35     102.9261      0.00000
     36     107.0242      0.00000
     37     109.6285      0.00000
     38     111.1741      0.00000
     39     111.9510      0.00000
     40     118.0050      0.00000
     41     122.0347      0.00000
     42     122.3123      0.00000
     43     125.3408      0.00000
     44     127.5456      0.00000
     45     130.1607      0.00000
     46     131.5667      0.00000
     47     132.5150      0.00000
     48     135.2310      0.00000
     49     138.4104      0.00000
     50     138.4853      0.00000
     51     141.4704      0.00000
     52     144.0147      0.00000
     53     145.0342      0.00000
     54     146.1210      0.00000
     55     147.4997      0.00000
     56     149.1214      0.00000
     57     153.0123      0.00000
     58     154.6839      0.00000
     59     157.4270      0.00000
     60     158.3970      0.00000
     61     159.7943      0.00000
     62     165.3346      0.00000
     63     166.2125      0.00000
     64     166.4084      0.00000
     65     166.5761      0.00000
     66     169.7025      0.00000
     67     170.7228      0.00000
     68     175.4627      0.00000
     69     177.3465      0.00000
     70     177.9985      0.00000
     71     178.7593      0.00000
     72     182.9091      0.00000
     73     183.2051      0.00000
     74     184.6970      0.00000
     75     187.5797      0.00000
     76     188.9165      0.00000
     77     191.6695      0.00000
     78     192.7281      0.00000
     79     193.9249      0.00000
     80     195.4774      0.00000
     81     197.6980      0.00000
     82     199.5247      0.00000
     83     201.6714      0.00000
     84     203.4807      0.00000
     85     204.6173      0.00000
     86     206.6427      0.00000
     87     206.6838      0.00000
     88     208.4468      0.00000
     89     210.1068      0.00000
     90     211.7033      0.00000
     91     217.5290      0.00000
     92     219.3646      0.00000
     93     219.5058      0.00000
     94     223.3945      0.00000
     95     225.2023      0.00000
     96     227.3309      0.00000
     97     230.0777      0.00000
     98     230.9950      0.00000
     99     231.6537      0.00000
    100     233.5651      0.00000
    101     234.2152      0.00000
    102     238.4899      0.00000
    103     238.5212      0.00000
    104     239.5749      0.00000
    105     239.6889      0.00000
    106     241.1886      0.00000
    107     242.1858      0.00000
    108     245.0030      0.00000
    109     247.5578      0.00000
    110     248.7816      0.00000
    111     248.8096      0.00000
    112     250.9266      0.00000
    113     251.7051      0.00000
    114     252.7705      0.00000
    115     253.0256      0.00000
    116     255.7868      0.00000
    117     258.0716      0.00000
    118     259.7624      0.00000
    119     263.2087      0.00000
    120     263.5449      0.00000
    121     264.4150      0.00000
    122     264.9973      0.00000
    123     265.6930      0.00000
    124     265.7543      0.00000
    125     268.9959      0.00000
    126     270.1405      0.00000
    127     271.5428      0.00000
    128     272.4699      0.00000

 k-point     7 :       0.5000    0.5000   -0.0000
  band No.  band energies     occupation 
      1      -3.0002      2.00000
      2      -3.0002      2.00000
      3       3.4659      2.00000
      4       3.4659      2.00000
      5      14.4605      0.00000
      6      14.4605      0.00000
      7      26.5103      0.00000
      8      26.5103      0.00000
      9      32.9101      0.00000
     10      32.9101      0.00000
     11      42.0001      0.00000
     12      42.0001      0.00000
     13      47.8315      0.00000
     14      47.8315      0.00000
     15      58.0319      0.00000
     16      58.0319      0.00000
     17      58.4587      0.00000
     18      58.4587      0.00000
     19      59.4385      0.00000
     20      59.4385      0.00000
     21      62.5045      0.00000
     22      62.5045      0.00000
     23      78.4837      0.00000
     24      78.4837      0.00000
     25      81.4359      0.00000
     26      81.4359      0.00000
     27      86.3334      0.00000
     28      86.3334      0.00000
     29      92.3881      0.00000
     30      92.3881      0.00000
     31     101.2076      0.00000
     32     101.2076      0.00000
     33     104.5931      0.00000
     34     104.5931      0.00000
     35     105.2135      0.00000
     36     105.2135      0.00000
     37     107.0034      0.00000
     38     107.0034      0.00000
     39     109.2851      0.00000
     40     109.2851      0.00000
     41     122.1104      0.00000
     42     122.1104      0.00000
     43     126.3105      0.00000
     44     126.3106      0.00000
     45     132.1893      0.00000
     46     132.1893      0.00000
     47     139.1896      0.00000
     48     139.1896      0.00000
     49     143.3150      0.00000
     50     143.3150      0.00000
     51     145.4593      0.00000
     52     145.4593      0.00000
     53     150.2802      0.00000
     54     150.2802      0.00000
     55     152.4798      0.00000
     56     152.4798      0.00000
     57     153.3603      0.00000
     58     153.3603      0.00000
     59     154.8391      0.00000
     60     154.8391      0.00000
     61     155.4481      0.00000
     62     155.4481      0.00000
     63     162.6151      0.00000
     64     162.6151      0.00000
     65     177.8329      0.00000
     66     177.8329      0.00000
     67     179.5131      0.00000
     68     179.5131      0.00000
     69     182.2420      0.00000
     70     182.2420      0.00000
     71     184.2778      0.00000
     72     184.2778      0.00000
     73     185.8094      0.00000
     74     185.8094      0.00000
     75     187.3350      0.00000
     76     187.3350      0.00000
     77     187.6685      0.00000
     78     187.6685      0.00000
     79     192.7258      0.00000
     80     192.7258      0.00000
     81     193.9004      0.00000
     82     193.9004      0.00000
     83     195.3910      0.00000
     84     195.3910      0.00000
     85     199.0350      0.00000
     86     199.0350      0.00000
     87     202.2909      0.00000
     88     202.2909      0.00000
     89     202.4720      0.00000
     90     202.4720      0.00000
     91     208.0855      0.00000
     92     208.0855      0.00000
     93     215.3270      0.00000
     94     215.3270      0.00000
     95     228.6147      0.00000
     96     228.6147      0.00000
     97     229.9996      0.00000
     98     229.9996      0.00000
     99     234.2891      0.00000
    100     234.2891      0.00000
    101     234.6544      0.00000
    102     234.6544      0.00000
    103     235.3086      0.00000
    104     235.3086      0.00000
    105     236.1570      0.00000
    106     236.1570      0.00000
    107     238.9318      0.00000
    108     238.9318      0.00000
    109     247.0819      0.00000
    110     247.0819      0.00000
    111     247.8908      0.00000
    112     247.8908      0.00000
    113     247.9285      0.00000
    114     247.9285      0.00000
    115     253.7735      0.00000
    116     253.7735      0.00000
    117     268.6532      0.00000
    118     268.6532      0.00000
    119     271.5245      0.00000
    120     271.5245      0.00000
    121     273.5466      0.00000
    122     273.5466      0.00000
    123     275.7947      0.00000
    124     275.7947      0.00000
    125     283.7153      0.00000
    126     283.7153      0.00000
    127     287.7039      0.00000
    128     287.7393      0.00000

 k-point     8 :      -0.2500    0.2500    0.5000
  band No.  band energies     occupation 
      1      -2.2115      2.00000
      2      -2.2115      2.00000
      3       1.4407      2.00000
      4       1.4407      2.00000
      5      20.3275      0.00000
      6      20.3275      0.00000
      7      22.0095      0.00000
      8      22.0095      0.00000
      9      31.0116      0.00000
     10      31.0116      0.00000
     11      40.0626      0.00000
     12      40.0626      0.00000
     13      52.6865      0.00000
     14      52.6865      0.00000
     15      55.0693      0.00000
     16      55.0693      0.00000
     17      57.5013      0.00000
     18      57.5013      0.00000
     19      65.0156      0.00000
     20      65.0156      0.00000
     21      66.5618      0.00000
     22      66.5618      0.00000
     23      77.3769      0.00000
     24      77.3769      0.00000
     25      78.6010      0.00000
     26      78.6010      0.00000
     27      78.8158      0.00000
     28      78.8158      0.00000
     29      93.7844      0.00000
     30      93.7844      0.00000
     31      95.7410      0.00000
     32      95.7410      0.00000
     33     102.7392      0.00000
     34     102.7392      0.00000
     35     106.8046      0.00000
     36     106.8046      0.00000
     37     109.7701      0.00000
     38     109.7701      0.00000
     39     123.8449      0.00000
     40     123.8449      0.00000
     41     124.1309      0.00000
     42     124.1309      0.00000
     43     126.1648      0.00000
     44     126.1648      0.00000
     45     131.9733      0.00000
     46     131.9733      0.00000
     47     132.7646      0.00000
     48     132.7646      0.00000
     49     140.4426      0.00000
     50     140.4426      0.00000
     51     141.9174      0.00000
     52     141.9174      0.00000
     53     144.2595      0.00000
     54     144.2595      0.00000
     55     150.7781      0.00000
     56     150.7781      0.00000
     57     158.1556      0.00000
     58     158.1556      0.00000
     59     159.0697      0.00000
     60     159.0697      0.00000
     61     163.1190      0.00000
     62     163.1190      0.00000
     63     164.7514      0.00000
     64     164.7514      0.00000
     65     167.0174      0.00000
     66     167.0174      0.00000
     67     173.5465      0.00000
     68     173.5465      0.00000
     69     178.4713      0.00000
     70     178.4713      0.00000
     71     186.5486      0.00000
     72     186.5486      0.00000
     73     187.3472      0.00000
     74     187.3472      0.00000
     75     189.7389      0.00000
     76     189.7389      0.00000
[...]
     16      51.4609      0.00000
     17      59.8711      0.00000
     18      63.6471      0.00000
     19      64.0407      0.00000
     20      64.7233      0.00000
     21      69.2082      0.00000
     22      72.7148      0.00000
     23      75.0106      0.00000
     24      75.6219      0.00000
     25      77.1848      0.00000
     26      80.0617      0.00000
     27      86.1969      0.00000
     28      87.7223      0.00000
     29      88.3312      0.00000
     30      91.9111      0.00000
     31      96.8570      0.00000
     32      97.5517      0.00000
     33      98.7261      0.00000
     34     100.7982      0.00000
     35     101.8179      0.00000
     36     105.8879      0.00000
     37     108.4831      0.00000
     38     109.9537      0.00000
     39     110.6449      0.00000
     40     116.7487      0.00000
     41     120.7406      0.00000
     42     120.9612      0.00000
     43     123.9708      0.00000
     44     126.1994      0.00000
     45     128.8091      0.00000
     46     130.1783      0.00000
     47     131.1293      0.00000
     48     133.8364      0.00000
     49     136.9607      0.00000
     50     137.0108      0.00000
     51     139.9839      0.00000
     52     142.4914      0.00000
     53     143.5160      0.00000
     54     144.5988      0.00000
     55     145.9808      0.00000
     56     147.5133      0.00000
     57     151.3809      0.00000
     58     153.0170      0.00000
     59     155.7636      0.00000
     60     156.6831      0.00000
     61     158.0675      0.00000
     62     163.6167      0.00000
     63     164.4683      0.00000
     64     164.6219      0.00000
     65     164.8065      0.00000
     66     167.9389      0.00000
     67     168.9565      0.00000
     68     173.6052      0.00000
     69     175.4410      0.00000
     70     176.1204      0.00000
     71     176.8846      0.00000
     72     181.0238      0.00000
     73     181.3132      0.00000
     74     182.7662      0.00000
     75     185.6172      0.00000
     76     186.9431      0.00000
     77     189.6704      0.00000
     78     190.6990      0.00000
     79     191.8555      0.00000
     80     193.4238      0.00000
     81     195.5448      0.00000
     82     197.4202      0.00000
     83     199.5270      0.00000
     84     201.3534      0.00000
     85     202.4748      0.00000
     86     204.5250      0.00000
     87     204.5316      0.00000
     88     206.3168      0.00000
     89     207.9327      0.00000
     90     209.4566      0.00000
     91     215.2836      0.00000
     92     217.0577      0.00000
     93     217.1905      0.00000
     94     221.0521      0.00000
     95     222.8488      0.00000
     96     224.9696      0.00000
     97     227.6335      0.00000
     98     228.5433      0.00000
     99     229.1638      0.00000
    100     231.1074      0.00000
    101     231.7723      0.00000
    102     235.9311      0.00000
    103     235.9957      0.00000
    104     237.0724      0.00000
    105     237.1643      0.00000
    106     238.6892      0.00000
    107     239.7057      0.00000
    108     242.4494      0.00000
    109     244.9850      0.00000
    110     246.1733      0.00000
    111     246.1927      0.00000
    112     248.3098      0.00000
    113     249.1056      0.00000
    114     250.1737      0.00000
    115     250.4161      0.00000
    116     253.1088      0.00000
    117     255.3918      0.00000
    118     257.0192      0.00000
    119     260.4939      0.00000
    120     260.8054      0.00000
    121     261.7012      0.00000
    122     262.2621      0.00000
    123     262.9484      0.00000
    124     263.0276      0.00000
    125     266.1722      0.00000
    126     267.3145      0.00000
    127     268.6952      0.00000
    128     269.6423      0.00000

 k-point     7 :       0.5000    0.5000   -0.0000
  band No.  band energies     occupation 
      1      -3.1126      2.00000
      2      -3.1126      2.00000
      3       3.3381      2.00000
      4       3.3381      2.00000
      5      14.2095      0.00000
      6      14.2096      0.00000
      7      26.0599      0.00000
      8      26.0599      0.00000
      9      32.4095      0.00000
     10      32.4095      0.00000
     11      41.5277      0.00000
     12      41.5277      0.00000
     13      47.3252      0.00000
     14      47.3252      0.00000
     15      57.3956      0.00000
     16      57.3956      0.00000
     17      57.8151      0.00000
     18      57.8151      0.00000
     19      58.8143      0.00000
     20      58.8143      0.00000
     21      61.7520      0.00000
     22      61.7520      0.00000
     23      77.6097      0.00000
     24      77.6097      0.00000
     25      80.5041      0.00000
     26      80.5041      0.00000
     27      85.3733      0.00000
     28      85.3733      0.00000
     29      91.4122      0.00000
     30      91.4122      0.00000
     31     100.0888      0.00000
     32     100.0888      0.00000
     33     103.5117      0.00000
     34     103.5117      0.00000
     35     104.1037      0.00000
     36     104.1037      0.00000
     37     105.9020      0.00000
     38     105.9020      0.00000
     39     108.1042      0.00000
     40     108.1042      0.00000
     41     120.7218      0.00000
     42     120.7218      0.00000
     43     124.9376      0.00000
     44     124.9376      0.00000
     45     130.7542      0.00000
     46     130.7542      0.00000
     47     137.7364      0.00000
     48     137.7364      0.00000
     49     141.7830      0.00000
     50     141.7830      0.00000
     51     143.8733      0.00000
     52     143.8733      0.00000
     53     148.7144      0.00000
     54     148.7144      0.00000
     55     150.8922      0.00000
     56     150.8922      0.00000
     57     151.7873      0.00000
     58     151.7873      0.00000
     59     153.2553      0.00000
     60     153.2553      0.00000
     61     153.8598      0.00000
     62     153.8598      0.00000
     63     160.8219      0.00000
     64     160.8219      0.00000
     65     175.9262      0.00000
     66     175.9262      0.00000
     67     177.5713      0.00000
     68     177.5713      0.00000
     69     180.3267      0.00000
     70     180.3267      0.00000
     71     182.3408      0.00000
     72     182.3408      0.00000
     73     183.8756      0.00000
     74     183.8756      0.00000
     75     185.3990      0.00000
     76     185.3990      0.00000
     77     185.7109      0.00000
     78     185.7109      0.00000
     79     190.7214      0.00000
     80     190.7214      0.00000
     81     191.8948      0.00000
     82     191.8948      0.00000
     83     193.3221      0.00000
     84     193.3221      0.00000
     85     196.9909      0.00000
     86     196.9909      0.00000
     87     200.2204      0.00000
     88     200.2204      0.00000
     89     200.4046      0.00000
     90     200.4046      0.00000
     91     205.8114      0.00000
     92     205.8114      0.00000
     93     212.9862      0.00000
     94     212.9862      0.00000
     95     226.2201      0.00000
     96     226.2201      0.00000
     97     227.5830      0.00000
     98     227.5830      0.00000
     99     231.8759      0.00000
    100     231.8759      0.00000
    101     232.2065      0.00000
    102     232.2065      0.00000
    103     232.8949      0.00000
    104     232.8949      0.00000
    105     233.7502      0.00000
    106     233.7502      0.00000
    107     236.3600      0.00000
    108     236.3600      0.00000
    109     244.5159      0.00000
    110     244.5159      0.00000
    111     245.3310      0.00000
    112     245.3310      0.00000
    113     245.3844      0.00000
    114     245.3844      0.00000
    115     251.1155      0.00000
    116     251.1155      0.00000
    117     265.7251      0.00000
    118     265.7251      0.00000
    119     268.6302      0.00000
    120     268.6302      0.00000
    121     270.6319      0.00000
    122     270.6319      0.00000
    123     272.9019      0.00000
    124     272.9019      0.00000
    125     280.7872      0.00000
    126     280.7872      0.00000
    127     284.5935      0.00000
    128     284.6002      0.00000

 k-point     8 :      -0.2500    0.2500    0.5000
  band No.  band energies     occupation 
      1      -2.3484      2.00000
      2      -2.3484      2.00000
      3       1.3523      2.00000
      4       1.3523      2.00000
      5      20.0390      0.00000
      6      20.0390      0.00000
      7      21.5937      0.00000
      8      21.5937      0.00000
      9      30.5574      0.00000
     10      30.5574      0.00000
     11      39.5919      0.00000
     12      39.5919      0.00000
     13      52.1254      0.00000
     14      52.1254      0.00000
     15      54.4314      0.00000
     16      54.4314      0.00000
     17      56.8585      0.00000
     18      56.8585      0.00000
     19      64.2630      0.00000
     20      64.2630      0.00000
     21      65.8321      0.00000
     22      65.8321      0.00000
     23      76.5748      0.00000
     24      76.5748      0.00000
     25      77.6608      0.00000
     26      77.6608      0.00000
     27      78.0065      0.00000
     28      78.0065      0.00000
     29      92.7658      0.00000
     30      92.7658      0.00000
     31      94.7382      0.00000
     32      94.7382      0.00000
     33     101.5942      0.00000
     34     101.5942      0.00000
     35     105.6064      0.00000
     36     105.6064      0.00000
     37     108.5683      0.00000
     38     108.5683      0.00000
     39     122.5520      0.00000
     40     122.5520      0.00000
     41     122.8118      0.00000
     42     122.8118      0.00000
     43     124.8362      0.00000
     44     124.8362      0.00000
     45     130.5265      0.00000
     46     130.5265      0.00000
     47     131.3643      0.00000
     48     131.3643      0.00000
     49     138.9570      0.00000
     50     138.9570      0.00000
     51     140.4088      0.00000
     52     140.4088      0.00000
     53     142.7513      0.00000
     54     142.7513      0.00000
     55     149.2085      0.00000
     56     149.2085      0.00000
     57     156.5028      0.00000
     58     156.5028      0.00000
     59     157.3802      0.00000
     60     157.3802      0.00000
     61     161.3867      0.00000
     62     161.3867      0.00000
     63     163.0013      0.00000
     64     163.0013      0.00000
     65     165.2967      0.00000
     66     165.2967      0.00000
     67     171.6667      0.00000
     68     171.6667      0.00000
     69     176.5293      0.00000
     70     176.5293      0.00000
     71     184.5810      0.00000
     72     184.5810      0.00000
     73     185.4033      0.00000
     74     185.4033      0.00000
     75     187.7707      0.00000
     76     187.7707      0.00000
     77     187.9551      0.00000
     78     187.9551      0.00000
     79     188.0805      0.00000
     80     188.0805      0.00000
     81     188.6506      0.00000
     82     188.6506      0.00000
     83     198.1582      0.00000
     84     198.1582      0.00000
     85     202.8063      0.00000
     86     202.8063      0.00000
     87     206.7369      0.00000
     88     206.7369      0.00000
     89     206.8493      0.00000
     90     206.8493      0.00000
     91     208.2639      0.00000
     92     208.2639      0.00000
     93     214.9941      0.00000
     94     214.9941      0.00000
     95     216.4490      0.00000
     96     216.4490      0.00000
     97     216.5877      0.00000
     98     216.5877      0.00000
     99     219.9562      0.00000
    100     219.9562      0.00000
    101     225.7797      0.00000
    102     225.7797      0.00000
    103     232.4207      0.00000
    104     232.4207      0.00000
    105     234.1742      0.00000
    106     234.1742      0.00000
    107     238.9909      0.00000
    108     238.9909      0.00000
    109     248.0763      0.00000
    110     248.0763      0.00000
    111     253.3442      0.00000
    112     253.3442      0.00000
    113     257.5237      0.00000
    114     257.5237      0.00000
    115     262.2563      0.00000
    116     262.2563      0.00000
    117     269.8616      0.00000
    118     269.8616      0.00000
    119     270.4085      0.00000
    120     270.4085      0.00000
    121     271.4803      0.00000
    122     271.4803      0.00000
    123     276.7970      0.00000
    124     276.7970      0.00000
    125     277.0302      0.00000
    126     277.0302      0.00000
    127     278.0001      0.00000
    128     278.0001      0.00000


--------------------------------------------------------------------------------------------------------


 soft charge-density along one line, spin component           1
         0         1         2         3         4         5         6         7         8         9
 total charge-density along one line
 
 pseudopotential strength for first ion, spin component:           1
  9.442  12.539   0.000   0.000   0.000  -0.000  -0.000  -0.000
 12.539  16.649   0.000   0.000   0.000  -0.000  -0.000  -0.000
  0.000   0.000  -3.667   0.000   0.000   7.183  -0.000  -0.000
  0.000   0.000   0.000  -3.667   0.000  -0.000   7.183  -0.000
  0.000   0.000   0.000   0.000  -3.667  -0.000  -0.000   7.183
 -0.000  -0.000   7.183  -0.000  -0.000 -16.165   0.000   0.000
 -0.000  -0.000  -0.000   7.183  -0.000   0.000 -16.165   0.000
 -0.000  -0.000  -0.000  -0.000   7.183   0.000   0.000 -16.165
 total augmentation occupancy for first ion, spin component:           1
  7.381  -3.258   0.000   0.000   0.000   0.000   0.000   0.000
 -3.258   1.504   0.000   0.000   0.000   0.000   0.000   0.000
  0.000   0.000   1.566  -0.000   0.000   0.126  -0.000   0.000
  0.000   0.000  -0.000   1.566   0.000  -0.000   0.126   0.000
  0.000   0.000   0.000   0.000   1.566   0.000   0.000   0.126
  0.000   0.000   0.126  -0.000   0.000   0.012  -0.000   0.000
  0.000   0.000  -0.000   0.126   0.000  -0.000   0.012  -0.000
  0.000   0.000   0.000   0.000   0.126   0.000  -0.000   0.012


------------------------ aborting loop because EDIFF is reached ----------------------------------------


    CHARGE:  cpu time    0.0038: real time    0.0038
    FORLOC:  cpu time    0.0006: real time    0.0006
    FORNL :  cpu time    0.0137: real time    0.0137
    STRESS:  cpu time    0.0249: real time    0.0249
    FORCOR:  cpu time    0.0107: real time    0.0107
    FORHAR:  cpu time    0.0023: real time    0.0023
    MIXING:  cpu time    0.0005: real time    0.0005
    OFIELD:  cpu time    0.0000: real time    0.0000

  FORCE on cell =-STRESS in cart. coord.  units (eV):
  Direction    XX          YY          ZZ          XY          YZ          ZX
  --------------------------------------------------------------------------------------
  Alpha Z    28.40145    28.40145    28.40145
  Ewald    -115.22918  -115.22918  -115.22918     0.00000    -0.00000     0.00000
  Hartree     9.08852     9.08852     9.08852     0.00000     0.00000     0.00000
  E(xc)     -30.37792   -30.37792   -30.37792     0.00000     0.00000     0.00000
  Local     -11.35777   -11.35777   -11.35777     0.00000     0.00000     0.00000
  n-local    -8.01150    -8.01150    -8.40569    -0.69371     0.13405    -0.13405
  augment    -0.75761    -0.75761    -0.75761    -0.00000    -0.00000    -0.00000
  Kinetic   129.22465   129.22464   126.61885     6.26156    -2.29829     2.29829
  Fock        0.00000     0.00000     0.00000     0.00000     0.00000     0.00000
  -------------------------------------------------------------------------------------
  Total      -0.01934    -0.01934    -0.01934     0.00000    -0.00000    -0.00000
  in kB      -2.67894    -2.67894    -2.67894     0.00000    -0.00000    -0.00000
  external pressure =       -2.68 kB  Pullay stress =        0.00 kB


 VOLUME and BASIS-vectors are now :
 -----------------------------------------------------------------------------
  energy-cutoff  :      520.00
  volume of cell :       11.57
      direct lattice vectors                 reciprocal lattice vectors
    -0.000000000  1.795118974  1.795118974    -0.278533071  0.278533071  0.278533071
     1.795118974 -0.000000000  1.795118974     0.278533071 -0.278533071  0.278533071
     1.795118974  1.795118974  0.000000000     0.278533071  0.278533071 -0.278533071

  length of vectors
     2.538681599  2.538681599  2.538681599     0.482433430  0.482433430  0.482433430


 FORCES acting on ions
    electron-ion (+dipol)            ewald-force                    non-local-force                 convergence-correction
 -----------------------------------------------------------------------------------------------
   -.740E-07 -.740E-07 -.148E-06   -.329E-14 -.812E-14 0.375E-13   0.109E-15 0.102E-15 0.114E-15   0.527E-08 0.527E-08 0.527E-08
   0.740E-07 0.740E-07 0.148E-06   0.325E-14 0.768E-14 -.383E-13   -.131E-15 -.118E-15 -.108E-15   -.527E-08 -.527E-08 -.527E-08
 -----------------------------------------------------------------------------------------------
   0.867E-13 0.799E-13 0.554E-13   -.378E-16 -.434E-15 -.830E-15   -.227E-16 -.157E-16 0.575E-17   -.362E-14 -.771E-14 -.582E-14
 
 
 POSITION                                       TOTAL-FORCE (eV/Angst)
 -----------------------------------------------------------------------------------
      0.89756      0.89756      0.89756         0.000000      0.000000      0.000000
     -0.00000     -0.00000     -0.00000        -0.000000     -0.000000     -0.000000
 -----------------------------------------------------------------------------------
    total drift:                                0.000000      0.000000      0.000000


--------------------------------------------------------------------------------------------------------



  FREE ENERGIE OF THE ION-ELECTRON SYSTEM (eV)
  ---------------------------------------------------
  free  energy   TOTEN  =       -17.56049670 eV

  energy  without entropy=      -17.56049670  energy(sigma->0) =      -17.56049670
  enthalpy is  TOTEN    =       -17.56048948 eV   P V=        0.00000722

 d Force = 0.0000000E+00[ 0.000E+00, 0.000E+00]  d Energy = 0.1000970E-02-0.100E-02
 d Force = 0.0000000E+00[ 0.000E+00, 0.000E+00]  d Ewald  =-0.1009883E+01 0.101E+01


--------------------------------------------------------------------------------------------------------


    POTLOK:  cpu time    0.0117: real time    0.0117


--------------------------------------------------------------------------------------------------------




--------------------------------------------------------------------------------------------------------


  
 reached required accuracy - stopping structural energy minimisation
     LOOP+:  cpu time    2.8481: real time    2.8486
    4ORBIT:  cpu time    0.0000: real time    0.0043

 total amount of memory used by VASP MPI-rank0    36107. kBytes
=======================================================================

   base      :      30000. kBytes
   nonl-proj :        180. kBytes
   fftplans  :       1158. kBytes
   grid      :       1913. kBytes
   one-center:          6. kBytes
   wavefun   :       2850. kBytes
 
  
  
 General timing and accounting informations for this job:
 ========================================================
  
                  Total CPU time used (sec):       12.073
                            User time (sec):       12.023
                          System time (sec):        0.050
                         Elapsed time (sec):       12.493
  
                   Maximum memory used (kb):       71652.
                   Average memory used (kb):           0.
  
                          Minor page faults:         7759
                          Major page faults:            7
                 Voluntary context switches:           61
